                  Welcome to Q-Chem
     A Quantum Leap Into The Future Of Chemistry


 Q-Chem 6.4 (devel), Q-Chem, Inc., Pleasanton, CA (2025)

 E. Epifanovsky,  A. T. B. Gilbert,  Xintian Feng,  Joonho Lee,  Yuezhi Mao,  
 N. Mardirossian,  P. Pokhilko,  A. White,  M. Wormit,  M. P. Coons,  
 A. L. Dempwolff,  Zhengting Gan,  D. Hait,  P. R. Horn,  L. D. Jacobson,  
 I. Kaliman,  J. Kussmann,  A. W. Lange,  Ka Un Lao,  D. S. Levine,  Jie Liu,  
 S. C. McKenzie,  A. F. Morrison,  K. D. Nanda,  F. Plasser,  D. R. Rehn,  
 M. L. Vidal,  Zhi-Qiang You,  Ying Zhu,  Huseyin Aksu,  B. Alam,  
 B. Albrecht,  A. Aldossary,  E. Alguire,  J. H. Andersen,  
 J. E. Arias-Martinez,  V. Athavale,  F. Ballesteros,  D. Barton,  K. Begam,  
 A. Behn,  N. Bellonzi,  Y. A. Bernard,  E. J. Berquist,  H. Burton,  
 S. Camps,  A. Carreras,  K. Carter-Fenk,  Mathew Chow,  Jeng-Da Chai,  
 Arnab Chakraborty,  Romit Chakraborty,  Chandrima Chakravarty,  Junhan Chen,  
 A. D. Chien,  K. D. Closser,  V. Cofer-Shabica,  L. Cunha,  S. Dasgupta,  
 Jia Deng,  Joseph Dickinson,  M. de Wergifosse,  M. Diedenhofen,  
 L. B. Dittmer,  Hainam Do,  Wenjie Dou,  S. Ehlert,  Po-Tung Fang,  
 Anthuan Ferino-Pérez,  S. Fatehi,  Qingguo Feng,  Jonathan Fetherolf,  
 T. Friedhoff,  Thomas Froitzheim,  Sarai Folkestad,  B. Ganoe,  J. Gayvert,  
 Qinghui Ge,  G. Gidofalvi,  M. Gimferrer,  G. Giudetti,  M. Goldey,  
 Montgomery Gray,  J. Gomes,  C. Gonzalez-Espinoza,  S. Gulania,  A. Gunina,  
 J. A. Gyamfi,  M. W. D. Hanson-Heine,  P. H. P. Harbach,  A. W. Hauser,  
 M. F. Herbst,  M. Hernandez Vera,  M. Hodecker,  Z. C. Holden,  S. Houck,  
 Xunkun Huang,  Kerwin Hui,  B. C. Huynh,  K. Ikeda,  M. Ivanov,  
 Nayanthara K. Jayadev,  Hyunjun Ji,  Zuxin Jin,  Hanjie Jiang,  
 Subrata Jana,  B. Kaduk,  S. Kaehler,  Richard Kang,  K. Khistyaev,  
 Jaehoon Kim,  Yongbin Kim,  P. Klunzinger,  Z. Koczor-Benda,  
 Joong Hoon Koh,  Elena Kolodzeiski,  D. Kosenkov,  Saikiran Kotaru,  
 L. Koulias,  T. Kowalczyk,  C. M. Krauter,  K. Kue,  A. Kunitsa,  T. Kus,  
 A. Landau,  C. W. Lander,  K. V. Lawler,  D. Lefrancois,  S. Lehtola,  
 Rain Li,  Shaozhi Li,  Tao E. Li,  Yi-Pei Li,  Jiashu Liang,  M. Liebenthal,  
 Hung-Hsuan Lin,  You-Sheng Lin,  Fenglai Liu,  Kuan-Yu Liu,  Xiao Liu,  
 M. Loipersberger,  A. Luenser,  C. Malbon,  Aniket Mandal,  Manisha,  
 A. Manjanath,  P. Manohar,  E. Mansoor,  S. F. Manzer,  Shan-Ping Mao,  
 A. V. Marenich,  T. Markovich,  S. Mason,  F. Matz,  S. A. Maurer,  
 Samuel May,  Alexandra McIsaac,  P. F. McLaughlin,  M. F. S. J. Menger,  
 J.-M. Mewes,  S. A. Mewes,  R. E. Moorby,  P. Morgante,  
 Mohammad Mostafanejad,  Madhubani Mukherjee,  J. W. Mullinax,  Quyen Nguyen,  
 Avik Kumar Ojha,  K. J. Oosterbaan,  Eno Paenurk,  Xiaoliang Pan,  G. Paran,  
 V. Parravicini,  R. L. Patterson,  Alexander C. Paul,  Suranjan K. Paul,  
 F. Pavosevic,  Zheng Pei,  P. Pokhilko,  S. Prager,  E. I. Proynov,  
 E. Ramos,  B. Rana,  A. E. Rask,  A. Rettig,  R. M. Richard,  F. Rob,  
 E. Rossomme,  S. Roy,  T. Scheele,  M. Scheurer,  M. Schneider,  
 P. E. Schneider,  Tim K. Schramm,  N. Sergueev,  S. M. Sharada,  
 Hengyuan Shen,  W. Skomorowski,  D. W. Small,  C. J. Stein,  
 Alistair J. Sterling,  Yingli Su,  Yu-Chuan Su,  E. J. Sundstrom,  
 J. Talbot,  J. A. Tan,  Zhen Tao,  Hung-Hsuan Teh,  J. Thirman,  C. Titeca,  
 N. Tkachenko,  Hung-Yi Tsai,  T. Tsuchimochi,  N. M. Tubman,  C. Utku,  
 S. P. Veccham,  O. Vydrov,  Z. Wang,  Markus G. S. Weiss,  Rahel Weiss,  
 J. Wenzel,  Jonathan Wong,  J. Witte,  H. Wu,  Yanze Wu,  A. Yamada,  
 Chou-Hsun Yang,  Kun Yao,  S. Yeganeh,  S. R. Yost,  Qi Yu,  A. Zech,  
 F. Zeller,  Chongxiao Zhao,  T. Zhao,  Igor Ying Zhang,  Xing Zhang,  
 Yu Zhang,  Zeyi Zhang,  D. Zuev,  A. Aspuru-Guzik,  A. T. Bell,  
 N. A. Besley,  K. B. Bravaya,  B. R. Brooks,  D. Casanova,  Jeng-Da Chai,  
 Hsing-Ta Chen,  S. Coriani,  C. J. Cramer,  A. E. DePrince, III,  
 R. A. DiStasio Jr.,  A. Dreuw,  B. D. Dunietz,  T. R. Furlani,  
 W. A. Goddard III,  S. Grimme,  S. Hammes-Schiffer,  T. Head-Gordon,  
 W. J. Hehre,  Chao-Ping Hsu,  T.-C. Jagau,  Yousung Jung,  A. Klamt,  
 Jing Kong,  D. S. Lambrecht,  Xiangyuan Li,  WanZhen Liang,  N. J. Mayhall,  
 C. W. McCurdy,  J. B. Neaton,  T. Neudecker,  C. Ochsenfeld,  
 J. A. Parkhill,  R. Peverati,  V. A. Rassolov,  Haisheng Ren,  Yihan Shao,  
 L. V. Slipchenko,  R. P. Steele,  J. E. Subotnik,  A. J. W. Thom,  
 A. Tkatchenko,  D. G. Truhlar,  T. Van Voorhis,  Fan Wang,  
 T. A. Wesolowski,  K. B. Whaley,  H. L. Woodcock III,  P. M. Zimmerman,  
 S. Faraji,  P. M. W. Gill,  M. Head-Gordon,  J. M. Herbert,  A. I. Krylov

 Contributors to earlier versions of Q-Chem not listed above: 
 R. D. Adamson,  B. Austin,  R. Baer,  J. Baker,  G. J. O. Beran,  
 K. Brandhorst,  S. T. Brown,  E. F. C. Byrd,  Arup K. Chakraborty,  
 G. K. L. Chan,  Chun-Min Chang,  Yunqing Chen,  C.-L. Cheng,  
 Siu Hung Chien,  D. M. Chipman,  D. L. Crittenden,  H. Dachsel,  
 R. J. Doerksen,  A. D. Dutoi,  R. G. Edgar,  J. Fosso-Tande,  
 L. Fusti-Molnar,  D. Ghosh,  A. Ghysels,  A. Golubeva-Zadorozhnaya,  
 J. Gonthier,  M. S. Gordon,  S. R. Gwaltney,  G. Hawkins,  J. E. Herr,  
 A. Heyden,  S. Hirata,  E. G. Hohenstein,  G. Kedziora,  F. J. Keil,  
 C. Kelley,  Jihan Kim,  R. A. King,  R. Z. Khaliullin,  P. P. Korambath,  
 W. Kurlancheek,  A. Laurent,  A. M. Lee,  M. S. Lee,  S. V. Levchenko,  
 Ching Yeh Lin,  D. Liotard,  E. Livshits,  R. C. Lochan,  I. Lotan,  
 L. A. Martinez-Martinez,  P. E. Maslen,  N. Nair,  D. P. O'Neill,  
 D. Neuhauser,  E. Neuscamman,  C. M. Oana,  R. Olivares-Amaya,  R. Olson,  
 T. M. Perrine,  B. Peters,  P. A. Pieniazek,  A. Prociuk,  Y. M. Rhee,  
 J. Ritchie,  M. A. Rohrdanz,  E. Rosta,  N. J. Russ,  H. F. Schaefer III,  
 M. W. Schmidt,  N. E. Schultz,  S. Sharma,  N. Shenvi,  C. D. Sherrill,  
 A. C. Simmonett,  A. Sodt,  T. Stein,  D. Stuck,  K. S. Thanthiriwatte,  
 V. Vanovschi,  L. Vogt,  Tao Wang,  A. Warshel,  M. A. Watson,  
 C. F. Williams,  Q. Wu,  X. Xu,  Jun Yang,  W. Zhang,  Yan Zhao

   Please cite Q-Chem as follows:
  "Software for the frontiers of quantum chemistry:
   An overview of developments in the Q-Chem 5 package"
   J. Chem. Phys. 155, 084801 (2021)
   https://doi.org/10.1063/5.0055522 (open access)

 Q-Chem 6.4.0 for Intel X86 EM64T Linux

 Parts of Q-Chem use Armadillo 12.8.2 (Cortisol Injector).
 http://arma.sourceforge.net/

 Q-Chem begins on Wed Jan 21 13:33:57 2026  

 Host: orc44
0

 Scratch files written to /scratch/bibhas/qchem15435//
 Executable: /qcsoftware/qchem_latest/exe/qcprog.exe
 Number of threads = 20
 Processing $rem in /qcsoftware/qchem_latest/config/preferences:
 Processing $rem in /home/users/bibhas/.qchemrc:
 Core orbitals will be frozen

 Checking the input file for inconsistencies... 	...done.

--------------------------------------------------------------
User input:
--------------------------------------------------------------
$molecule
-2 1
  C    0.1680604   -0.5348581   -0.0000258
  C   -1.1717595    0.1731560    0.0000119
  O    1.0707274    0.4620546    0.0001839
  H    0.2153262   -1.2219084   -0.8863507
  H    0.2152266   -1.2221892    0.8860863
  H   -1.3833301    0.7388802   -0.9074669
  H   -1.3834299    0.7385941    0.9076459
$end

$rem
   BASIS  =  cc-pVTZ
   DIP_SINGLETS  =  [2, 0]
   CC_STATE_TO_OPT  =  [1, 2]  
   GUI  =  2
   JOB_TYPE  =  OPT
   MEM_TOTAL  =  200000
   METHOD  =  EOM-CCSD
   SCF_CONVERGENCE  =  8
$end


--------------------------------------------------------------
 Atom   1: (  0.1744294578, -0.5536673947,  0.0000002837)
         ->(  0.1744294578, -0.5536673947,  0.0000000000)
 Atom   2: ( -1.1840169737,  0.1179162736,  0.0000002114)
         ->( -1.1840169737,  0.1179162736,  0.0000000000)
 Atom   3: (  1.0498528580,  0.4672520722, -0.0000004789)
         ->(  1.0498528580,  0.4672520722,  0.0000000000)
 Atom   5: (  0.2401811000, -1.2393314314,  0.8862197233)
         ->(  0.2401808334, -1.2393343304,  0.8862173014)
 Atom   7: ( -1.4108286354,  0.6775801996,  0.9075556317)
         ->( -1.4108310663,  0.6775757110,  0.9075571933)
 ----------------------------------------------------------------
             Standard Nuclear Orientation (Angstroms)
    I     Atom           X                Y                Z
 ----------------------------------------------------------------
    1      C       0.1744294578    -0.5536673948     0.0000000000
    2      C      -1.1840169740     0.1179162737     0.0000000000
    3      O       1.0498528582     0.4672520723     0.0000000000
    4      H       0.2401808334    -1.2393343307    -0.8862173016
    5      H       0.2401808334    -1.2393343307     0.8862173016
    6      H      -1.4108310666     0.6775757111    -0.9075571935
    7      H      -1.4108310666     0.6775757111     0.9075571935
 ----------------------------------------------------------------
 Molecular Point Group                 Cs    NOp =  2
 Largest Abelian Subgroup              Cs    NOp =  2
 Nuclear Repulsion Energy =          68.62644814 hartrees
 There are       13 alpha and       13 beta electrons
 Requested basis set is cc-pVTZ
 There are 54 shells and 146 basis functions
 Total memory of 200000 MB is distributed as follows: 
   MEM_STATIC is set to 192 MB
   QALLOC/CCMAN JOB total memory use is  199808 MB
 Warning: actual memory use might exceed 200000 MB

 Total QAlloc Memory Limit 200000 MB
 Mega-Array Size       188 MB
 MEM_STATIC part       192 MB

 -----------------------------------------------------------------------
                STARTING GEOMETRY OPTIMIZER USING LIBOPT3
                by Peter F. McLaughlin, Yu Zhang, Evgeny Epifanovsky
 -----------------------------------------------------------------------

              Initial Energy and Gradient Calculation
   -- Checking Topology for Ill-Behaving Coordinates --

 -------------------------------------------
   Coordinate       |  Removed | Additions 
 -------------------------------------------
	Bonds                     0          0
	Angles                    0          0
	Torsions                  0          0
	Co-Linear Type5s          0          0
	Co-Linear Type6s          0          0
 -------------------------------------------
     Done Checking Topology
 ----------------------------------------------------------------
             Standard Nuclear Orientation (Angstroms)
    I     Atom           X                Y                Z
 ----------------------------------------------------------------
    1      C       0.1744293975    -0.5536671414    -0.0000000000
    2      C      -1.1840168248     0.1179169508    -0.0000000000
    3      O       1.0498531164     0.4672520526     0.0000000000
    4      H       0.2401805593    -1.2393340978    -0.8862173016
    5      H       0.2401805593    -1.2393340978     0.8862173016
    6      H      -1.4108307428     0.6775764590    -0.9075571935
    7      H      -1.4108307428     0.6775764590     0.9075571935
 ----------------------------------------------------------------
 Molecular Point Group                 Cs    NOp =  2
 Largest Abelian Subgroup              Cs    NOp =  2
 Nuclear Repulsion Energy =          68.62644675 hartrees
 There are       13 alpha and       13 beta electrons

                       Distance Matrix (Angstroms)
             C (  1)   C (  2)   O (  3)   H (  4)   H (  5)   H (  6)
   C (  2)  1.515388
   O (  3)  1.344858  2.261020
   H (  4)  1.122428  2.157742  2.086477
   H (  5)  1.122428  2.157742  2.086477  1.772435
   H (  6)  2.202878  1.090102  2.631133  2.529988  3.101292
   H (  7)  2.202878  1.090102  2.631133  3.101292  2.529988  1.815114


 Requested basis set is cc-pVTZ
 There are 54 shells and 146 basis functions
 A cutoff of  1.0D-14 yielded   1484 shell pairs
 There are     10944 function pairs (     14030 Cartesian)
 Smallest overlap matrix eigenvalue = 1.24E-03

 Scale SEOQF with 1.000000e-01/1.000000e+00/1.000000e+00

 Standard Electronic Orientation quadrupole field applied
 Nucleus-field energy     =     0.0000000028 hartrees
 Guess from superposition of atomic densities
 Warning:  Energy on first SCF cycle will be non-variational
 SAD guess density has 24.000000 electrons

 -----------------------------------------------------------------------
  General SCF calculation program by
  Eric Jon Sundstrom, Paul Horn, Yuezhi Mao, Dmitri Zuev, Alec White,
  David Stuck, Shaama M.S., Shane Yost, Joonho Lee, David Small,
  Daniel Levine, Susi Lehtola, Hugh Burton, Evgeny Epifanovsky,
  Bang C. Huynh
 -----------------------------------------------------------------------
 Hartree-Fock
 using 20 threads for integral computing
 -------------------------------------------------------
 OpenMP Integral computing Module                
 Release: version 1.0, May 2013, Q-Chem Inc. Pittsburgh 
 -------------------------------------------------------
 A restricted SCF calculation will be
 performed using DIIS
 SCF converges when DIIS error is below 1.0e-08
 User-specified cutoff of 10e-14
 used for neglect of 2-electron integrals.
 A cutoff of 10e-14
 used for neglect of overlap integrals.
 Incremental Fock algorithm is on at the start.
 ---------------------------------------
  Cycle       Energy         DIIS error
 ---------------------------------------
    1    -153.2159574619      3.69e-02  
    2    -152.3784248689      8.53e-03  
    3    -152.5082749981      6.07e-03  
    4    -152.5827450167      6.06e-04  
    5    -152.5840406953      2.86e-04  
    6    -152.5843456985      6.96e-05  
    7    -152.5843864514      2.48e-05  
    8    -152.5843968375      1.26e-05  
    9    -152.5844007302      6.31e-06  
   10    -152.5844019481      2.35e-06  
   11    -152.5844021088      6.60e-07  
   12    -152.5844021173      1.90e-07  
   13    -152.5844021180      5.05e-08  
   14    -152.5844021180      1.72e-08  
   15    -152.5844021180      4.36e-09  Convergence criterion met
 ---------------------------------------
 SCF time:   CPU 32.57s  wall 3.00s 
 SCF   energy =  -152.58440212
 Total energy =  -152.58440212


 ------------------------------------------------------------------------------

   CCMAN2: suite of methods based on coupled cluster
           and equation of motion theories.

   Components:
   * libvmm-1.3-trunk
     by Evgeny Epifanovsky, Ilya Kaliman.
   * libtensor-2.5-trunk
     by Evgeny Epifanovsky, Michael Wormit, Dmitry Zuev, Sam Manzer, 
        Ilya Kaliman.
   * libcc-2.5-trunk
     by Evgeny Epifanovsky, Arik Landau, Tomasz Kus, Kirill Khistyaev, 
        Dmitry Zuev, Prashant Manohar, Xintian Feng, Anna Krylov, 
        Matthew Goldey, Alec White, Thomas Jagau, Kaushik Nanda, 
        Anastasia Gunina, Alexander Kunitsa, Joonho Lee.

   CCMAN original authors:
   Anna I. Krylov, C. David Sherrill, Steven R. Gwaltney,
   Edward F. C. Byrd (2000)
   Sergey V. Levchenko, Lyudmila V. Slipchenko, Tao Wang,
   Ana-Maria C. Cristian (2003)
   Piotr A. Pieniazek, C. Melania Oana, Evgeny Epifanovsky (2007)
   Prashant Manohar (2009)

 ------------------------------------------------------------------------------


 Allocating and initializing 199808MB of RAM (this may take a while)...
 Calculation will run on 20 cores.


 Alpha MOs, Restricted
 -- Occupied --                  
-19.966 -10.811 -10.694  -0.781  -0.464  -0.322  -0.157  -0.093
  1 A'    2 A'    3 A'    4 A'    5 A'    6 A'    1 A"    7 A'                 
 -0.050  -0.036   0.101   0.105   0.219
  8 A'    2 A"    9 A'    3 A"   10 A'                                         
 -- Virtual --                   
  0.519   0.540   0.553   0.613   0.714   0.763   0.793   0.860
 11 A'   12 A'    4 A"    5 A"   13 A'   14 A'   15 A'    6 A"                 
  0.903   0.946   1.002   1.024   1.035   1.062   1.097   1.111
  7 A"   16 A'    8 A"   17 A'   18 A'   19 A'   20 A'   21 A'                 
  1.136   1.184   1.244   1.269   1.320   1.368   1.392   1.417
  9 A"   22 A'   10 A"   23 A'   24 A'   11 A"   12 A"   25 A'                 
  1.460   1.560   1.639   1.646   1.675   1.708   1.731   1.759
 26 A'   13 A"   14 A"   27 A'   15 A"   28 A'   29 A'   16 A"                 
  1.762   1.819   1.846   1.906   1.921   1.924   1.975   2.077
 30 A'   31 A'   32 A'   17 A"   18 A"   33 A'   19 A"   20 A"                 
  2.097   2.133   2.242   2.385   2.499   2.510   2.728   2.815
 34 A'   35 A'   36 A'   37 A'   38 A'   21 A"   39 A'   22 A"                 
  2.861   2.955   3.013   3.079   3.096   3.208   3.218   3.276
 40 A'   23 A"   41 A'   42 A'   43 A'   44 A'   24 A"   45 A'                 
  3.326   3.443   3.506   3.518   3.618   3.621   3.657   3.725
 25 A"   46 A'   26 A"   47 A'   48 A'   27 A"   28 A"   29 A"                 
  3.768   3.773   3.773   3.858   3.873   3.916   3.930   3.978
 49 A'   30 A"   50 A'   31 A"   51 A'   52 A'   32 A"   33 A"                 
  3.997   4.022   4.033   4.104   4.142   4.198   4.211   4.261
 53 A'   34 A"   54 A'   55 A'   35 A"   56 A'   36 A"   37 A"                 
  4.294   4.327   4.393   4.472   4.527   4.566   4.597   4.654
 57 A'   38 A"   58 A'   59 A'   39 A"   60 A'   61 A'   40 A"                 
  4.694   4.706   4.722   4.778   4.793   4.837   4.947   4.964
 62 A'   63 A'   41 A"   64 A'   42 A"   65 A'   66 A'   43 A"                 
  4.982   5.068   5.137   5.184   5.270   5.378   5.428   5.447
 67 A'   44 A"   68 A'   69 A'   45 A"   70 A'   46 A"   71 A'                 
  5.588   5.608   5.681   5.797   5.835   5.836   5.848   5.990
 47 A"   72 A'   48 A"   73 A'   49 A"   74 A'   50 A"   75 A'                 
  6.023   6.131   6.225   6.231   6.240   6.334   6.487   6.565
 76 A'   77 A'   51 A"   78 A'   52 A"   79 A'   53 A"   80 A'                 
  6.686   6.790   7.004   7.085   7.138   7.483   7.502   7.949
 54 A"   55 A"   81 A'   82 A'   56 A"   83 A'   57 A"   84 A'                 
  7.959   8.044  11.238  12.626  13.574
 58 A"   85 A'   86 A'   87 A'   88 A'                                         

 Beta MOs, Restricted
 -- Occupied --                  
-19.966 -10.811 -10.694  -0.781  -0.464  -0.322  -0.157  -0.093
  1 A'    2 A'    3 A'    4 A'    5 A'    6 A'    1 A"    7 A'                 
 -0.050  -0.036   0.101   0.105   0.219
  8 A'    2 A"    9 A'    3 A"   10 A'                                         
 -- Virtual --                   
  0.519   0.540   0.553   0.613   0.714   0.763   0.793   0.860
 11 A'   12 A'    4 A"    5 A"   13 A'   14 A'   15 A'    6 A"                 
  0.903   0.946   1.002   1.024   1.035   1.062   1.097   1.111
  7 A"   16 A'    8 A"   17 A'   18 A'   19 A'   20 A'   21 A'                 
  1.136   1.184   1.244   1.269   1.320   1.368   1.392   1.417
  9 A"   22 A'   10 A"   23 A'   24 A'   11 A"   12 A"   25 A'                 
  1.460   1.560   1.639   1.646   1.675   1.708   1.731   1.759
 26 A'   13 A"   14 A"   27 A'   15 A"   28 A'   29 A'   16 A"                 
  1.762   1.819   1.846   1.906   1.921   1.924   1.975   2.077
 30 A'   31 A'   32 A'   17 A"   18 A"   33 A'   19 A"   20 A"                 
  2.097   2.133   2.242   2.385   2.499   2.510   2.728   2.815
 34 A'   35 A'   36 A'   37 A'   38 A'   21 A"   39 A'   22 A"                 
  2.861   2.955   3.013   3.079   3.096   3.208   3.218   3.276
 40 A'   23 A"   41 A'   42 A'   43 A'   44 A'   24 A"   45 A'                 
  3.326   3.443   3.506   3.518   3.618   3.621   3.657   3.725
 25 A"   46 A'   26 A"   47 A'   48 A'   27 A"   28 A"   29 A"                 
  3.768   3.773   3.773   3.858   3.873   3.916   3.930   3.978
 49 A'   30 A"   50 A'   31 A"   51 A'   52 A'   32 A"   33 A"                 
  3.997   4.022   4.033   4.104   4.142   4.198   4.211   4.261
 53 A'   34 A"   54 A'   55 A'   35 A"   56 A'   36 A"   37 A"                 
  4.294   4.327   4.393   4.472   4.527   4.566   4.597   4.654
 57 A'   38 A"   58 A'   59 A'   39 A"   60 A'   61 A'   40 A"                 
  4.694   4.706   4.722   4.778   4.793   4.837   4.947   4.964
 62 A'   63 A'   41 A"   64 A'   42 A"   65 A'   66 A'   43 A"                 
  4.982   5.068   5.137   5.184   5.270   5.378   5.428   5.447
 67 A'   44 A"   68 A'   69 A'   45 A"   70 A'   46 A"   71 A'                 
  5.588   5.608   5.681   5.797   5.835   5.836   5.848   5.990
 47 A"   72 A'   48 A"   73 A'   49 A"   74 A'   50 A"   75 A'                 
  6.023   6.131   6.225   6.231   6.240   6.334   6.487   6.565
 76 A'   77 A'   51 A"   78 A'   52 A"   79 A'   53 A"   80 A'                 
  6.686   6.790   7.004   7.085   7.138   7.483   7.502   7.949
 54 A"   55 A"   81 A'   82 A'   56 A"   83 A'   57 A"   84 A'                 
  7.959   8.044  11.238  12.626  13.574
 58 A"   85 A'   86 A'   87 A'   88 A'                                         

 Occupation and symmetry of molecular orbitals

 Point group: Cs (2 irreducible representations).

                           A'   A"    All 
 ------------------------------------------
 All molecular orbitals:
  - Alpha                  88   58    146 
  - Beta                   88   58    146 
 ------------------------------------------
 Alpha orbitals:
  - Frozen occupied        3    0     3   
  - Active occupied        7    3     10  
  - Active virtual         78   55    133 
  - Frozen virtual         0    0     0   
 ------------------------------------------
 Beta orbitals:
  - Frozen occupied        3    0     3   
  - Active occupied        7    3     10  
  - Active virtual         78   55    133 
  - Frozen virtual         0    0     0   
 ------------------------------------------

 Import integrals:   CPU 0.00 s  wall 0.00 s

 Import integrals:   CPU 30.41 s  wall 3.61 s


 MP2  CPU 0.30 s  wall 0.18 s
Running a double precision version
           CCSD T amplitudes will be solved using DIIS.

           Start     Size      MaxIter   EConv     TConv     
           3         7         100       1.00e-07  1.00e-05  
 ------------------------------------------------------------------------------
           Energy (a.u.)   Ediff      Tdiff       Comment
 ------------------------------------------------------------------------------
          -153.21033649                           
     1    -153.20801928   2.32e-03   7.26e-01     
     2    -153.22510318   1.71e-02   8.80e-02     
     3    -153.22459886   5.04e-04   3.02e-02     
     4    -153.22604275   1.44e-03   2.00e-02     Switched to DIIS steps.
     5    -153.22682510   7.82e-04   7.45e-03     
     6    -153.22689966   7.46e-05   2.40e-03     
     7    -153.22692902   2.94e-05   2.20e-03     
     8    -153.22694352   1.45e-05   1.03e-03     
     9    -153.22695256   9.04e-06   7.32e-04     
    10    -153.22695456   2.01e-06   3.11e-04     
    11    -153.22695548   9.20e-07   1.59e-04     
    12    -153.22695504   4.40e-07   8.07e-05     
    13    -153.22695446   5.80e-07   2.26e-05     
    14    -153.22695443   3.50e-08   1.13e-05     
    15    -153.22695424   1.93e-07   6.80e-06     
    16    -153.22695421   2.53e-08   3.28e-06     
 ------------------------------------------------------------------------------
          -153.22695421                           CCSD T converged.

 End of double precision
 SCF energy                 = -152.58440212
 MP2 energy                 = -153.21033649
 CCSD correlation energy    =   -0.64255209
 CCSD total energy          = -153.22695421

 CCSD  T1^2 = 0.0134  T2^2 = 0.2122  Leading amplitudes:

 Amplitude    Orbitals with energies
  0.0351       10 (A') A                 ->    11 (A') A                  
               0.2194                          0.5189                     
  0.0351       10 (A') B                 ->    11 (A') B                  
               0.2194                          0.5189                     
 -0.0276       10 (A') A                 ->    12 (A') A                  
               0.2194                          0.5400                     
 -0.0276       10 (A') B                 ->    12 (A') B                  
               0.2194                          0.5400                     

 Amplitude    Orbitals with energies
 -0.0480       10 (A') A     10 (A') B   ->    16 (A') A     16 (A') B    
               0.2194        0.2194            0.9464        0.9464       
  0.0480       10 (A') A     10 (A') B   ->    16 (A') B     16 (A') A    
               0.2194        0.2194            0.9464        0.9464       
  0.0480       10 (A') B     10 (A') A   ->    16 (A') A     16 (A') B    
               0.2194        0.2194            0.9464        0.9464       
 -0.0480       10 (A') B     10 (A') A   ->    16 (A') B     16 (A') A    
               0.2194        0.2194            0.9464        0.9464       

 Computing CCSD intermediates for later calculations in double precision
 Finished.


 CCSD  CPU 248.69 s  wall 18.48 s

 EOMEE-CCSD  CPU 0.94 s  wall 0.28 s
        Solving for EOMDIP-CCSD A' transitions to singlet states

           EOMDIP-CCSD right amplitudes will be solved using Davidson.
        Amplitudes will be solved using standard  algorithm.
     Hard-coded thresholds: 
     LinDepThresh=1.00e-15  NormThresh=1.00e-06  ReorthogonThresh=1.00e-02

      Roots     MaxVec    MaxIter   Precond   Conv      Shift    
      2         120       60        1         1.00e-06  0.00e+00  
 ------------------------------------------------------------------------------
      Iter ConvRoots NVecs ResNorm^2 Current eigenvalues (eV)
 ------------------------------------------------------------------------------
      0    0      2     3.40e-01   1.9987   5.4397   
      1    0      4     1.48e-01   -3.1135   0.2741   
      2    0      6     9.62e-03   -4.7600   -1.1139   
      3    0      8     3.48e-03   -4.9578   -1.3179   
      4    0      10    1.72e-03   -4.9999   -1.4342   
      5    0      12    6.06e-04   -5.0070   -1.4767   
      6    0      14    2.35e-04   -5.0131   -1.5045   
      7    0      16    9.35e-05   -5.0144   -1.5165   
      8    0      18    2.00e-05   -5.0141   -1.5166   
      9    1      20    3.06e-06   -5.0144*  -1.5181   
      10   1      21    7.41e-07   -5.0143*  -1.5180   
      11   2      22    2.42e-07   -5.0143*  -1.5181*  

     Davidson procedure converged

 EOMDIP-CCSD transition 1/A'
 Total energy = -153.41122765 a.u.  Excitation energy = -5.0143 eV.
 R2^2 = 0.8818  R3^2 = 0.1182  Res^2 = 1.55e-07
 Conv-d = yes

 Amplitude    Transitions between orbitals
 -0.7622       10 (A') A     10 (A') B                 ->    infty        
  0.7622       10 (A') B     10 (A') A                 ->    infty        
  0.3309       9 (A') A      10 (A') B                 ->    infty        
 -0.3309       9 (A') B      10 (A') A                 ->    infty        
  0.2191       9 (A') A      9 (A') B                  ->    infty        
 -0.2191       9 (A') B      9 (A') A                  ->    infty        

              Summary of significant orbitals:

               Number  Type             Irrep      Energy
               11      Occ  Alpha       9 (A')      0.1007
               13      Occ  Alpha      10 (A')      0.2194
               11      Occ  Beta        9 (A')      0.1007
               13      Occ  Beta       10 (A')      0.2194


 EOMDIP-CCSD transition 2/A'
 Total energy = -153.28274261 a.u.  Excitation energy = -1.5181 eV.
 R2^2 = 0.8787  R3^2 = 0.1213  Res^2 = 3.29e-07
 Conv-d = yes

 Amplitude    Transitions between orbitals
 -0.5028       9 (A') A      10 (A') B                 ->    infty        
  0.5028       9 (A') B      10 (A') A                 ->    infty        
 -0.4531       10 (A') A     10 (A') B                 ->    infty        
  0.4531       10 (A') B     10 (A') A                 ->    infty        
  0.2161       8 (A') A      10 (A') B                 ->    infty        
 -0.2161       8 (A') B      10 (A') A                 ->    infty        
 -0.1451       7 (A') A      10 (A') B                 ->    infty        
  0.1451       7 (A') B      10 (A') A                 ->    infty        
 -0.1052       9 (A') A      9 (A') B                  ->    infty        
  0.1052       9 (A') B      9 (A') A                  ->    infty        

              Summary of significant orbitals:

               Number  Type             Irrep      Energy
               8       Occ  Alpha       7 (A')     -0.0932
               9       Occ  Alpha       8 (A')     -0.0498
               11      Occ  Alpha       9 (A')      0.1007
               13      Occ  Alpha      10 (A')      0.2194
               8       Occ  Beta        7 (A')     -0.0932
               9       Occ  Beta        8 (A')     -0.0498
               11      Occ  Beta        9 (A')      0.1007
               13      Occ  Beta       10 (A')      0.2194


           EOMDIP-CCSD left amplitudes will be solved using Davidson.
        Amplitudes will be solved using MOM  algorithm.
     Hard-coded thresholds: 
     LinDepThresh=1.00e-15  NormThresh=1.00e-06  ReorthogonThresh=1.00e-02

      Roots     MaxVec    MaxIter   Precond   Conv      Shift    
      2         120       60        1         1.00e-06  0.00e+00  
 ------------------------------------------------------------------------------
      Iter ConvRoots NVecs ResNorm^2 Current eigenvalues (eV)
 ------------------------------------------------------------------------------
      0    0      2     1.05e-02   -5.0143   -1.5181   
      1    0      4     3.52e-03   -5.0143   -1.5180   
      2    0      6     1.21e-04   -5.0143   -1.5180   
      3    0      8     2.06e-05   -5.0143   -1.5180   
      4    0      10    4.11e-06   -5.0143   -1.5180   
      5    1      12    9.86e-07   -5.0143   -1.5180*  
      6    2      13    5.33e-07   -5.0143*  -1.5180*  

     Davidson procedure converged

Running a double precision version
           EOM amplitude response will be solved using DIIS.
           Start     Size      MaxIter   EConv     ZConv     
           3         7         100       1.00e-06  1.00e-06  
 ------------------------------------------------------------------------------
            Enorm      Zdiff       Comment
 ------------------------------------------------------------------------------
     1     7.14e-02   4.54e-02     
     2     2.92e-02   1.84e-02     
     3     1.62e-02   8.29e-03     
     4     6.70e-03   8.81e-03     Switched to DIIS steps.
     5     4.39e-03   2.02e-03     
     6     2.66e-03   2.07e-03     
     7     1.23e-03   1.58e-03     
     8     7.06e-04   3.81e-04     
     9     2.98e-04   3.86e-04     
    10     1.55e-04   1.84e-05     
    11     5.92e-05   1.74e-05     
    12     3.14e-05   3.90e-06     
    13     1.61e-05   3.59e-06     
    14     1.04e-05   1.06e-06     
    15     5.49e-06   1.90e-06     
    16     2.70e-06   7.67e-07     
    17     1.36e-06   3.41e-07     
    18     7.13e-07   9.04e-08     
 ------------------------------------------------------------------------------
                                   Amplitude response converged.

           Orbital response amplitudes will be solved using DIIS.
           Start     Size      MaxIter   EConv     LConv     
           3         7         100       1.00e-06  1.00e-06  
 ------------------------------------------------------------------------------
            Enorm      Ldiff       Comment
 ------------------------------------------------------------------------------
     1     4.43e-01   2.24e-01     
     2     4.80e-01   1.38e-01     
     3     6.00e-01   2.56e-01     
     4     1.79e-02   2.91e-01     Switched to DIIS steps.
     5     1.06e-02   4.24e-03     
     6     1.44e-03   4.87e-04     
     7     2.89e-04   7.40e-05     
     8     8.93e-05   4.64e-05     
     9     3.59e-05   8.26e-06     
    10     8.35e-06   5.90e-06     
    11     3.62e-06   5.36e-07     
    12     4.80e-07   1.20e-06     
    13     2.55e-07   9.99e-09     
 ------------------------------------------------------------------------------
                                   Orbital response converged.


 EOMDIP-CCSD  CPU 308.82 s  wall 26.19 s
 Transferring MO TPDM to AO TPDM
 Transferring g2_o1o1o1o1
 Transferring g2_o1o1o1v1
 Transferring g2_o1o1v1v1
 Transferring g2_o1v1o1v1
 Transferring g2_o1v1v1v1
 Transferring g2_v1v1v1v1
 Adding separable TPDM
 Computing TPDM gradient
 --------------------------------------------------------
 2e gradient
  Atom          X               Y               Z
 --------------------------------------------------------
    1          0.881628        5.591051        0.000000  
    2          5.889027        0.669765       -0.000000  
    3         -8.251187       -7.267703        0.000000  
    4         -0.392807        2.209116        2.122628  
    5         -0.392807        2.209116       -2.122628  
    6          1.133073       -1.705672        2.506578  
    7          1.133073       -1.705672       -2.506578  
 --------------------------------------------------------
 --------------------------------------------------------
 Final gradient
  Atom          X               Y               Z
 --------------------------------------------------------
    1          0.881628        5.591051        0.000000  
    2          5.889027        0.669765       -0.000000  
    3         -8.251187       -7.267703        0.000000  
    4         -0.392807        2.209116        2.122628  
    5         -0.392807        2.209116       -2.122628  
    6          1.133073       -1.705672        2.506578  
    7          1.133073       -1.705672       -2.506578  
 --------------------------------------------------------
 Gradient  CPU 564.39 s  wall 49.08 s
 Total ccman2 time:   CPU 1215.64 s  wall 102.64 s


 --------------------------------------------------------------
             Orbital Energies (a.u.) and Symmetries
 --------------------------------------------------------------

 Alpha MOs, Restricted
 -- Occupied --                  
-19.966 -10.811 -10.694  -0.781  -0.464  -0.322  -0.093  -0.050
  1 A'    2 A'    3 A'    4 A'    5 A'    6 A'    7 A'    8 A'                 
  0.101   0.219  -0.157  -0.036   0.105
  9 A'   10 A'    1 A"    2 A"    3 A"                                         
 -- Virtual --                   
  0.519   0.540   0.714   0.763   0.793   0.946   1.024   1.035
 11 A'   12 A'   13 A'   14 A'   15 A'   16 A'   17 A'   18 A'                 
  1.062   1.097   1.111   1.184   1.269   1.320   1.417   1.460
 19 A'   20 A'   21 A'   22 A'   23 A'   24 A'   25 A'   26 A'                 
  1.646   1.708   1.731   1.762   1.819   1.846   1.924   2.097
 27 A'   28 A'   29 A'   30 A'   31 A'   32 A'   33 A'   34 A'                 
  2.133   2.242   2.385   2.499   2.728   2.861   3.013   3.079
 35 A'   36 A'   37 A'   38 A'   39 A'   40 A'   41 A'   42 A'                 
  3.096   3.208   3.276   3.443   3.518   3.618   3.768   3.773
 43 A'   44 A'   45 A'   46 A'   47 A'   48 A'   49 A'   50 A'                 
  3.873   3.916   3.997   4.033   4.104   4.198   4.294   4.393
 51 A'   52 A'   53 A'   54 A'   55 A'   56 A'   57 A'   58 A'                 
  4.472   4.566   4.597   4.694   4.706   4.778   4.837   4.947
 59 A'   60 A'   61 A'   62 A'   63 A'   64 A'   65 A'   66 A'                 
  4.982   5.137   5.184   5.378   5.447   5.608   5.797   5.836
 67 A'   68 A'   69 A'   70 A'   71 A'   72 A'   73 A'   74 A'                 
  5.990   6.023   6.131   6.231   6.334   6.565   7.004   7.085
 75 A'   76 A'   77 A'   78 A'   79 A'   80 A'   81 A'   82 A'                 
  7.483   7.949   8.044  11.238  12.626  13.574   0.553   0.613
 83 A'   84 A'   85 A'   86 A'   87 A'   88 A'    4 A"    5 A"                 
  0.860   0.903   1.002   1.136   1.244   1.368   1.392   1.560
  6 A"    7 A"    8 A"    9 A"   10 A"   11 A"   12 A"   13 A"                 
  1.639   1.675   1.759   1.906   1.921   1.975   2.077   2.510
 14 A"   15 A"   16 A"   17 A"   18 A"   19 A"   20 A"   21 A"                 
  2.815   2.955   3.218   3.326   3.506   3.621   3.657   3.725
 22 A"   23 A"   24 A"   25 A"   26 A"   27 A"   28 A"   29 A"                 
  3.773   3.858   3.930   3.978   4.022   4.142   4.211   4.261
 30 A"   31 A"   32 A"   33 A"   34 A"   35 A"   36 A"   37 A"                 
  4.327   4.527   4.654   4.722   4.793   4.964   5.068   5.270
 38 A"   39 A"   40 A"   41 A"   42 A"   43 A"   44 A"   45 A"                 
  5.428   5.588   5.681   5.835   5.848   6.225   6.240   6.487
 46 A"   47 A"   48 A"   49 A"   50 A"   51 A"   52 A"   53 A"                 
  6.686   6.790   7.138   7.502   7.959
 54 A"   55 A"   56 A"   57 A"   58 A"                                         

 Beta MOs, Restricted
 -- Occupied --                  
-19.966 -10.811 -10.694  -0.781  -0.464  -0.322  -0.093  -0.050
  1 A'    2 A'    3 A'    4 A'    5 A'    6 A'    7 A'    8 A'                 
  0.101   0.219  -0.157  -0.036   0.105
  9 A'   10 A'    1 A"    2 A"    3 A"                                         
 -- Virtual --                   
  0.519   0.540   0.714   0.763   0.793   0.946   1.024   1.035
 11 A'   12 A'   13 A'   14 A'   15 A'   16 A'   17 A'   18 A'                 
  1.062   1.097   1.111   1.184   1.269   1.320   1.417   1.460
 19 A'   20 A'   21 A'   22 A'   23 A'   24 A'   25 A'   26 A'                 
  1.646   1.708   1.731   1.762   1.819   1.846   1.924   2.097
 27 A'   28 A'   29 A'   30 A'   31 A'   32 A'   33 A'   34 A'                 
  2.133   2.242   2.385   2.499   2.728   2.861   3.013   3.079
 35 A'   36 A'   37 A'   38 A'   39 A'   40 A'   41 A'   42 A'                 
  3.096   3.208   3.276   3.443   3.518   3.618   3.768   3.773
 43 A'   44 A'   45 A'   46 A'   47 A'   48 A'   49 A'   50 A'                 
  3.873   3.916   3.997   4.033   4.104   4.198   4.294   4.393
 51 A'   52 A'   53 A'   54 A'   55 A'   56 A'   57 A'   58 A'                 
  4.472   4.566   4.597   4.694   4.706   4.778   4.837   4.947
 59 A'   60 A'   61 A'   62 A'   63 A'   64 A'   65 A'   66 A'                 
  4.982   5.137   5.184   5.378   5.447   5.608   5.797   5.836
 67 A'   68 A'   69 A'   70 A'   71 A'   72 A'   73 A'   74 A'                 
  5.990   6.023   6.131   6.231   6.334   6.565   7.004   7.085
 75 A'   76 A'   77 A'   78 A'   79 A'   80 A'   81 A'   82 A'                 
  7.483   7.949   8.044  11.238  12.626  13.574   0.553   0.613
 83 A'   84 A'   85 A'   86 A'   87 A'   88 A'    4 A"    5 A"                 
  0.860   0.903   1.002   1.136   1.244   1.368   1.392   1.560
  6 A"    7 A"    8 A"    9 A"   10 A"   11 A"   12 A"   13 A"                 
  1.639   1.675   1.759   1.906   1.921   1.975   2.077   2.510
 14 A"   15 A"   16 A"   17 A"   18 A"   19 A"   20 A"   21 A"                 
  2.815   2.955   3.218   3.326   3.506   3.621   3.657   3.725
 22 A"   23 A"   24 A"   25 A"   26 A"   27 A"   28 A"   29 A"                 
  3.773   3.858   3.930   3.978   4.022   4.142   4.211   4.261
 30 A"   31 A"   32 A"   33 A"   34 A"   35 A"   36 A"   37 A"                 
  4.327   4.527   4.654   4.722   4.793   4.964   5.068   5.270
 38 A"   39 A"   40 A"   41 A"   42 A"   43 A"   44 A"   45 A"                 
  5.428   5.588   5.681   5.835   5.848   6.225   6.240   6.487
 46 A"   47 A"   48 A"   49 A"   50 A"   51 A"   52 A"   53 A"                 
  6.686   6.790   7.138   7.502   7.959
 54 A"   55 A"   56 A"   57 A"   58 A"                                         
 --------------------------------------------------------------

          Ground-State Mulliken Net Atomic Charges

     Atom                 Charge (a.u.)
  ----------------------------------------
      1 C                    -0.022848
      2 C                    -0.197139
      3 O                    -0.483728
      4 H                     0.115986
      5 H                     0.115986
      6 H                     0.235872
      7 H                     0.235872
  ----------------------------------------
  Sum of atomic charges =     0.000000

 -----------------------------------------------------------------
                    Cartesian Multipole Moments
 -----------------------------------------------------------------
    Charge (ESU x 10^10)
                -0.0000
    Dipole Moment (Debye)
         X      -4.1514      Y      -1.0336      Z      -0.0000
       Tot       4.2782
    Quadrupole Moments (Debye-Ang)
        XX     -21.0180     XY      -3.0497     YY     -17.2090
        XZ       0.0000     YZ      -0.0000     ZZ     -17.1173
    Octopole Moments (Debye-Ang^2)
       XXX      -2.6597    XXY       1.0053    XYY       0.1734
       YYY       0.9727    XXZ      -0.0000    XYZ      -0.0000
       YYZ       0.0000    XZZ      -1.3649    YZZ       0.5781
       ZZZ      -0.0000
    Hexadecapole Moments (Debye-Ang^3)
      XXXX    -130.1328   XXXY      -3.5147   XXYY     -27.0114
      XYYY      -2.1554   YYYY     -46.8646   XXXZ       0.0000
      XXYZ      -0.0000   XYYZ       0.0000   YYYZ      -0.0000
      XXZZ     -22.7914   XYZZ      -3.1487   YYZZ     -10.2273
      XZZZ       0.0000   YZZZ      -0.0000   ZZZZ     -25.2560
 -----------------------------------------------------------------
 DrvMan completing analytic gradient of the correlated energy
 Correlated dipole moment
            1
    1  -1.6332934
    2  -0.4066549
    3  -0.0000000
 Energy read as -153.282742612
 Full Analytical Gradient: (in a.u., or Hartree/Bohr)
             1             2             3             4             5
    1    0.09157095   -0.03543158   -0.07839143   -0.00068567   -0.00068567
    2    0.02717542   -0.01023513   -0.02586406   -0.01542169   -0.01542169
    3   -0.00000000    0.00000000    0.00000000    0.00049740   -0.00049740
             6             7
    1    0.01181170    0.01181170
    2    0.01988357    0.01988357
    3    0.00186568   -0.00186568
 Gradient time:  CPU 3.54 s  wall 3.47 s

 *****************************************************
             Starting BFGS Algorithm
 *****************************************************
            LIBOPT3 RUN PARAMETERS

  Geometry Optimization Coordinates :
	Delocalized Natural Internal Coordinates

  Step Length Selection Method :
	Eigenvector Following Algorithm

  Step Length Limiter :
	Root-Mean-Square of Gradient

  Convergence Criteria :
	Max Gradient Component    	3.00000000e-04
	Max Displacement Component	1.20000000e-03
	Absolute Energy Difference	1.00000000e-06

  Initial Hessian :
	Approximate Hessian - Model Internal Coordinate

  Type of Verification :
	Verify with final updated Hessian
 *****************************************************

	OPTIMIZATION CYCLE:	1





 Scaling Magnitude of Eigenvalues
 	Minimum: -25.00000000	 Maximum: 25.00000000
 15 Hessian Eigenvalues to form next step
   0.00714320   0.02732171   0.07921684   0.08175927   0.16000000
   0.16000000   0.16000000   0.16000000   0.22581835   0.30815127
   0.31318882   0.31318882   0.34800800   0.34800800   0.56130047


 Minimum Search taking a RFO step
 Searching for Lambda that minimizes along all modes
	Value of Lambda   -0.05631712
	Norm  of Stepsize  0.55140694
	RMS   of Stepsize  0.14237266

	Performing Iterative Coordinate Back-Transformation

	  Starting from Previous Position

	  iter:	0	rms: 1.8203604936e-01	maxdev: 6.1474823021e-01
	  iter:	1	rms: 2.1633981220e-02	maxdev: 5.4741358679e-02
	  iter:	2	rms: 2.0649985296e-04	maxdev: 4.9504384614e-04
	  iter:	3	rms: 2.9464491906e-08	maxdev: 8.4447936468e-08	 Success!

	Finished Iterative Coordinate Back-Transformation
 ----------------------------------------------------------------
             Standard Nuclear Orientation (Angstroms)
    I     Atom           X                Y                Z
 ----------------------------------------------------------------
    1      C       0.1844653119    -0.4741870922     0.0000000000
    2      C      -1.1556415086     0.1563073282     0.0000000000
    3      O       1.3463716234     0.3164622902     0.0000000000
    4      H       0.1921963839    -1.1394855525    -0.8879373913
    5      H       0.1921963839    -1.1394855525     0.8879373913
    6      H      -1.5303116594     0.5941861454    -0.9157459231
    7      H      -1.5303116594     0.5941861454     0.9157459231
 ----------------------------------------------------------------
 Molecular Point Group                 Cs    NOp =  2
 Largest Abelian Subgroup              Cs    NOp =  2
 Nuclear Repulsion Energy =          66.86342137 hartrees
 There are       13 alpha and       13 beta electrons

                       Distance Matrix (Angstroms)
             C (  1)   C (  2)   O (  3)   H (  4)   H (  5)   H (  6)
   C (  2)  1.481016
   O (  3)  1.405401  2.507134
   H (  4)  1.109556  2.069826  2.059208
   H (  5)  1.109556  2.069826  2.059208  1.775875
   H (  6)  2.218214  1.081992  3.031671  2.444059  3.037421
   H (  7)  2.218214  1.081992  3.031671  3.037421  2.444059  1.831492


 Applying Cartesian multipole field
    Component          Value
    ---------          -----
     (2,0,0)        1.00000E-11
     (0,2,0)        2.00000E-10
     (0,0,2)       -3.00000E-10
 Nucleus-field energy     = 1.4945795277e-09 hartrees
 Requested basis set is cc-pVTZ
 There are 54 shells and 146 basis functions
 A cutoff of  1.0D-14 yielded   1480 shell pairs
 There are     10936 function pairs (     14022 Cartesian)
 Smallest overlap matrix eigenvalue = 1.11E-03
 Guess MOs from SCF MO coefficient file

 -----------------------------------------------------------------------
  General SCF calculation program by
  Eric Jon Sundstrom, Paul Horn, Yuezhi Mao, Dmitri Zuev, Alec White,
  David Stuck, Shaama M.S., Shane Yost, Joonho Lee, David Small,
  Daniel Levine, Susi Lehtola, Hugh Burton, Evgeny Epifanovsky,
  Bang C. Huynh
 -----------------------------------------------------------------------
 Hartree-Fock
 A restricted SCF calculation will be
 performed using DIIS
 SCF converges when DIIS error is below 1.0e-08
 User-specified cutoff of 10e-14
 used for neglect of 2-electron integrals.
 A cutoff of 10e-14
 used for neglect of overlap integrals.
 Incremental Fock algorithm is on at the start.
 ---------------------------------------
  Cycle       Energy         DIIS error
 ---------------------------------------
    1    -152.5470794794      3.61e-03  
    2    -152.5893610382      1.08e-03  
    3    -152.5942617457      6.37e-04  
    4    -152.5954559224      1.60e-04  
    5    -152.5956558026      4.81e-05  
    6    -152.5956784813      1.95e-05  
    7    -152.5956835792      8.90e-06  
    8    -152.5956852559      4.08e-06  
    9    -152.5956857851      1.39e-06  
   10    -152.5956858436      4.87e-07  
   11    -152.5956858473      1.58e-07  
   12    -152.5956858477      3.62e-08  
   13    -152.5956858477      8.74e-09  Convergence criterion met
 ---------------------------------------
 SCF time:   CPU 33.72s  wall 3.00s 
 SCF   energy =  -152.59568585
 Total energy =  -152.59568585


 ------------------------------------------------------------------------------

   CCMAN2: suite of methods based on coupled cluster
           and equation of motion theories.

   Components:
   * libvmm-1.3-trunk
     by Evgeny Epifanovsky, Ilya Kaliman.
   * libtensor-2.5-trunk
     by Evgeny Epifanovsky, Michael Wormit, Dmitry Zuev, Sam Manzer, 
        Ilya Kaliman.
   * libcc-2.5-trunk
     by Evgeny Epifanovsky, Arik Landau, Tomasz Kus, Kirill Khistyaev, 
        Dmitry Zuev, Prashant Manohar, Xintian Feng, Anna Krylov, 
        Matthew Goldey, Alec White, Thomas Jagau, Kaushik Nanda, 
        Anastasia Gunina, Alexander Kunitsa, Joonho Lee.

   CCMAN original authors:
   Anna I. Krylov, C. David Sherrill, Steven R. Gwaltney,
   Edward F. C. Byrd (2000)
   Sergey V. Levchenko, Lyudmila V. Slipchenko, Tao Wang,
   Ana-Maria C. Cristian (2003)
   Piotr A. Pieniazek, C. Melania Oana, Evgeny Epifanovsky (2007)
   Prashant Manohar (2009)

 ------------------------------------------------------------------------------


 Allocating and initializing 199808MB of RAM (this may take a while)...
 Calculation will run on 20 cores.


 Alpha MOs, Restricted
 -- Occupied --                  
-19.962 -10.807 -10.701  -0.745  -0.488  -0.315  -0.161  -0.083
  1 A'    2 A'    3 A'    4 A'    5 A'    6 A'    1 A"    7 A'                 
 -0.048  -0.047   0.112   0.113   0.201
  2 A"    8 A'    9 A'    3 A"   10 A'                                         
 -- Virtual --                   
  0.522   0.536   0.548   0.603   0.739   0.761   0.807   0.876
 11 A'   12 A'    4 A"    5 A"   13 A'   14 A'   15 A'    6 A"                 
  0.905   0.940   0.984   1.011   1.031   1.063   1.098   1.127
  7 A"   16 A'   17 A'    8 A"   18 A'   19 A'   20 A'   21 A'                 
  1.137   1.148   1.249   1.274   1.311   1.381   1.407   1.417
  9 A"   22 A'   10 A"   23 A'   24 A'   11 A"   12 A"   25 A'                 
  1.473   1.543   1.602   1.614   1.653   1.707   1.755   1.789
 26 A'   13 A"   27 A'   14 A"   15 A"   28 A'   29 A'   16 A"                 
  1.794   1.815   1.887   1.906   1.921   1.957   1.995   2.069
 30 A'   31 A'   32 A'   17 A"   18 A"   33 A'   19 A"   20 A"                 
  2.097   2.148   2.257   2.316   2.469   2.525   2.740   2.836
 34 A'   35 A'   36 A'   37 A'   38 A'   21 A"   39 A'   22 A"                 
  2.874   2.923   2.978   2.989   3.105   3.188   3.232   3.287
 40 A'   41 A'   23 A"   42 A'   43 A'   44 A'   24 A"   45 A'                 
  3.342   3.458   3.511   3.531   3.614   3.623   3.639   3.719
 25 A"   46 A'   26 A"   47 A'   27 A"   48 A'   28 A"   29 A"                 
  3.730   3.771   3.784   3.811   3.837   3.887   3.907   3.950
 49 A'   50 A'   30 A"   51 A'   31 A"   32 A"   52 A'   53 A'                 
  3.965   4.027   4.034   4.148   4.155   4.196   4.245   4.246
 33 A"   34 A"   54 A'   35 A"   55 A'   56 A'   36 A"   57 A'                 
  4.294   4.410   4.453   4.462   4.522   4.560   4.651   4.679
 37 A"   38 A"   39 A"   58 A'   59 A'   60 A'   61 A'   40 A"                 
  4.702   4.713   4.736   4.763   4.832   4.885   4.951   4.957
 62 A'   41 A"   63 A'   64 A'   42 A"   65 A'   66 A'   43 A"                 
  4.962   5.068   5.136   5.174   5.248   5.452   5.458   5.513
 67 A'   68 A'   44 A"   69 A'   45 A"   70 A'   46 A"   71 A'                 
  5.593   5.606   5.735   5.808   5.856   5.891   5.942   5.997
 47 A"   72 A'   48 A"   73 A'   49 A"   74 A'   50 A"   75 A'                 
  6.031   6.169   6.225   6.229   6.363   6.371   6.476   6.520
 76 A'   77 A'   78 A'   51 A"   79 A'   52 A"   80 A'   53 A"                 
  6.676   6.710   6.937   7.055   7.098   7.457   7.482   7.895
 54 A"   55 A"   81 A'   56 A"   82 A'   83 A'   57 A"   84 A'                 
  7.958   8.049  10.682  12.698  13.652
 58 A"   85 A'   86 A'   87 A'   88 A'                                         

 Beta MOs, Restricted
 -- Occupied --                  
-19.962 -10.807 -10.701  -0.745  -0.488  -0.315  -0.161  -0.083
  1 A'    2 A'    3 A'    4 A'    5 A'    6 A'    1 A"    7 A'                 
 -0.048  -0.047   0.112   0.113   0.201
  2 A"    8 A'    9 A'    3 A"   10 A'                                         
 -- Virtual --                   
  0.522   0.536   0.548   0.603   0.739   0.761   0.807   0.876
 11 A'   12 A'    4 A"    5 A"   13 A'   14 A'   15 A'    6 A"                 
  0.905   0.940   0.984   1.011   1.031   1.063   1.098   1.127
  7 A"   16 A'   17 A'    8 A"   18 A'   19 A'   20 A'   21 A'                 
  1.137   1.148   1.249   1.274   1.311   1.381   1.407   1.417
  9 A"   22 A'   10 A"   23 A'   24 A'   11 A"   12 A"   25 A'                 
  1.473   1.543   1.602   1.614   1.653   1.707   1.755   1.789
 26 A'   13 A"   27 A'   14 A"   15 A"   28 A'   29 A'   16 A"                 
  1.794   1.815   1.887   1.906   1.921   1.957   1.995   2.069
 30 A'   31 A'   32 A'   17 A"   18 A"   33 A'   19 A"   20 A"                 
  2.097   2.148   2.257   2.316   2.469   2.525   2.740   2.836
 34 A'   35 A'   36 A'   37 A'   38 A'   21 A"   39 A'   22 A"                 
  2.874   2.923   2.978   2.989   3.105   3.188   3.232   3.287
 40 A'   41 A'   23 A"   42 A'   43 A'   44 A'   24 A"   45 A'                 
  3.342   3.458   3.511   3.531   3.614   3.623   3.639   3.719
 25 A"   46 A'   26 A"   47 A'   27 A"   48 A'   28 A"   29 A"                 
  3.730   3.771   3.784   3.811   3.837   3.887   3.907   3.950
 49 A'   50 A'   30 A"   51 A'   31 A"   32 A"   52 A'   53 A'                 
  3.965   4.027   4.034   4.148   4.155   4.196   4.245   4.246
 33 A"   34 A"   54 A'   35 A"   55 A'   56 A'   36 A"   57 A'                 
  4.294   4.410   4.453   4.462   4.522   4.560   4.651   4.679
 37 A"   38 A"   39 A"   58 A'   59 A'   60 A'   61 A'   40 A"                 
  4.702   4.713   4.736   4.763   4.832   4.885   4.951   4.957
 62 A'   41 A"   63 A'   64 A'   42 A"   65 A'   66 A'   43 A"                 
  4.962   5.068   5.136   5.174   5.248   5.452   5.458   5.513
 67 A'   68 A'   44 A"   69 A'   45 A"   70 A'   46 A"   71 A'                 
  5.593   5.606   5.735   5.808   5.856   5.891   5.942   5.997
 47 A"   72 A'   48 A"   73 A'   49 A"   74 A'   50 A"   75 A'                 
  6.031   6.169   6.225   6.229   6.363   6.371   6.476   6.520
 76 A'   77 A'   78 A'   51 A"   79 A'   52 A"   80 A'   53 A"                 
  6.676   6.710   6.937   7.055   7.098   7.457   7.482   7.895
 54 A"   55 A"   81 A'   56 A"   82 A'   83 A'   57 A"   84 A'                 
  7.958   8.049  10.682  12.698  13.652
 58 A"   85 A'   86 A'   87 A'   88 A'                                         

 Occupation and symmetry of molecular orbitals

 Point group: Cs (2 irreducible representations).

                           A'   A"    All 
 ------------------------------------------
 All molecular orbitals:
  - Alpha                  88   58    146 
  - Beta                   88   58    146 
 ------------------------------------------
 Alpha orbitals:
  - Frozen occupied        3    0     3   
  - Active occupied        7    3     10  
  - Active virtual         78   55    133 
  - Frozen virtual         0    0     0   
 ------------------------------------------
 Beta orbitals:
  - Frozen occupied        3    0     3   
  - Active occupied        7    3     10  
  - Active virtual         78   55    133 
  - Frozen virtual         0    0     0   
 ------------------------------------------

 Import integrals:   CPU 0.00 s  wall 0.00 s

 Import integrals:   CPU 30.39 s  wall 3.45 s


 MP2  CPU 0.29 s  wall 0.18 s
Running a double precision version
           CCSD T amplitudes will be solved using DIIS.

           Start     Size      MaxIter   EConv     TConv     
           3         7         100       1.00e-07  1.00e-05  
 ------------------------------------------------------------------------------
           Energy (a.u.)   Ediff      Tdiff       Comment
 ------------------------------------------------------------------------------
          -153.22148688                           
     1    -153.21942723   2.06e-03   7.29e-01     
     2    -153.23606754   1.66e-02   8.83e-02     
     3    -153.23572393   3.44e-04   3.00e-02     
     4    -153.23708301   1.36e-03   1.67e-02     Switched to DIIS steps.
     5    -153.23776202   6.79e-04   7.33e-03     
     6    -153.23782156   5.95e-05   2.22e-03     
     7    -153.23783384   1.23e-05   1.52e-03     
     8    -153.23784034   6.50e-06   7.28e-04     
     9    -153.23784338   3.04e-06   3.73e-04     
    10    -153.23784336   1.16e-08   1.61e-04     
    11    -153.23784506   1.70e-06   9.80e-05     
    12    -153.23784478   2.78e-07   6.61e-05     
    13    -153.23784466   1.28e-07   2.59e-05     
    14    -153.23784448   1.73e-07   1.24e-05     
    15    -153.23784442   6.57e-08   6.83e-06     
 ------------------------------------------------------------------------------
          -153.23784442                           CCSD T converged.

 End of double precision
 SCF energy                 = -152.59568585
 MP2 energy                 = -153.22148688
 CCSD correlation energy    =   -0.64215857
 CCSD total energy          = -153.23784442

 CCSD  T1^2 = 0.0095  T2^2 = 0.2100  Leading amplitudes:

 Amplitude    Orbitals with energies
 -0.0363       9 (A') A                  ->    11 (A') A                  
               0.1119                          0.5223                     
 -0.0363       9 (A') B                  ->    11 (A') B                  
               0.1119                          0.5223                     
  0.0229       3 (A") A                  ->    5 (A") A                   
               0.1128                          0.6035                     
  0.0229       3 (A") B                  ->    5 (A") B                   
               0.1128                          0.6035                     

 Amplitude    Orbitals with energies
 -0.0416       10 (A') A     10 (A') B   ->    16 (A') A     16 (A') B    
               0.2010        0.2010            0.9401        0.9401       
  0.0416       10 (A') A     10 (A') B   ->    16 (A') B     16 (A') A    
               0.2010        0.2010            0.9401        0.9401       
  0.0416       10 (A') B     10 (A') A   ->    16 (A') A     16 (A') B    
               0.2010        0.2010            0.9401        0.9401       
 -0.0416       10 (A') B     10 (A') A   ->    16 (A') B     16 (A') A    
               0.2010        0.2010            0.9401        0.9401       

 Computing CCSD intermediates for later calculations in double precision
 Finished.


 CCSD  CPU 232.20 s  wall 17.23 s

 EOMEE-CCSD  CPU 0.95 s  wall 0.28 s
        Solving for EOMDIP-CCSD A' transitions to singlet states

           EOMDIP-CCSD right amplitudes will be solved using Davidson.
        Amplitudes will be solved using standard  algorithm.
     Hard-coded thresholds: 
     LinDepThresh=1.00e-15  NormThresh=1.00e-06  ReorthogonThresh=1.00e-02

      Roots     MaxVec    MaxIter   Precond   Conv      Shift    
      2         120       60        1         1.00e-06  0.00e+00  
 ------------------------------------------------------------------------------
      Iter ConvRoots NVecs ResNorm^2 Current eigenvalues (eV)
 ------------------------------------------------------------------------------
      0    0      2     3.08e-01   2.6613   3.8536   
      1    0      4     1.38e-01   -2.1997   -0.7206   
      2    0      6     9.19e-03   -3.9041   -1.8270   
      3    0      8     2.94e-03   -4.0754   -2.0295   
      4    0      10    1.21e-03   -4.1177   -2.1360   
      5    0      12    2.64e-04   -4.1255   -2.1537   
      6    0      14    6.24e-05   -4.1314   -2.1616   
      7    0      16    1.65e-05   -4.1333   -2.1637   
      8    0      18    3.45e-06   -4.1326   -2.1636   
      9    2      20    6.11e-07   -4.1331*  -2.1636*  

     Davidson procedure converged

 EOMDIP-CCSD transition 1/A'
 Total energy = -153.38973187 a.u.  Excitation energy = -4.1331 eV.
 R2^2 = 0.8857  R3^2 = 0.1143  Res^2 = 7.21e-07
 Conv-d = yes

 Amplitude    Transitions between orbitals
 -0.5675       9 (A') A      10 (A') B                 ->    infty        
  0.5675       9 (A') B      10 (A') A                 ->    infty        
  0.4176       10 (A') A     10 (A') B                 ->    infty        
 -0.4176       10 (A') B     10 (A') A                 ->    infty        
 -0.1514       9 (A') A      9 (A') B                  ->    infty        
  0.1514       9 (A') B      9 (A') A                  ->    infty        
  0.1120       7 (A') A      10 (A') B                 ->    infty        
 -0.1120       7 (A') B      10 (A') A                 ->    infty        

              Summary of significant orbitals:

               Number  Type             Irrep      Energy
               8       Occ  Alpha       7 (A')     -0.0829
               11      Occ  Alpha       9 (A')      0.1119
               13      Occ  Alpha      10 (A')      0.2010
               8       Occ  Beta        7 (A')     -0.0829
               11      Occ  Beta        9 (A')      0.1119
               13      Occ  Beta       10 (A')      0.2010


 EOMDIP-CCSD transition 2/A'
 Total energy = -153.31735663 a.u.  Excitation energy = -2.1636 eV.
 R2^2 = 0.8877  R3^2 = 0.1123  Res^2 = 5.01e-07
 Conv-d = yes

 Amplitude    Transitions between orbitals
 -0.7650       10 (A') A     10 (A') B                 ->    infty        
  0.7650       10 (A') B     10 (A') A                 ->    infty        
 -0.2932       9 (A') A      10 (A') B                 ->    infty        
  0.2932       9 (A') B      10 (A') A                 ->    infty        
 -0.2348       8 (A') A      10 (A') B                 ->    infty        
  0.2348       8 (A') B      10 (A') A                 ->    infty        

              Summary of significant orbitals:

               Number  Type             Irrep      Energy
               10      Occ  Alpha       8 (A')     -0.0466
               11      Occ  Alpha       9 (A')      0.1119
               13      Occ  Alpha      10 (A')      0.2010
               10      Occ  Beta        8 (A')     -0.0466
               11      Occ  Beta        9 (A')      0.1119
               13      Occ  Beta       10 (A')      0.2010


           EOMDIP-CCSD left amplitudes will be solved using Davidson.
        Amplitudes will be solved using MOM  algorithm.
     Hard-coded thresholds: 
     LinDepThresh=1.00e-15  NormThresh=1.00e-06  ReorthogonThresh=1.00e-02

      Roots     MaxVec    MaxIter   Precond   Conv      Shift    
      2         120       60        1         1.00e-06  0.00e+00  
 ------------------------------------------------------------------------------
      Iter ConvRoots NVecs ResNorm^2 Current eigenvalues (eV)
 ------------------------------------------------------------------------------
      0    0      2     9.74e-03   -4.1331   -2.1636   
      1    0      4     3.32e-03   -4.1331   -2.1637   
      2    0      6     9.09e-05   -4.1330   -2.1637   
      3    0      8     1.52e-05   -4.1330   -2.1637   
      4    0      10    2.09e-06   -4.1330   -2.1637   
      5    2      12    5.28e-07   -4.1330*  -2.1637*  

     Davidson procedure converged

Running a double precision version
           EOM amplitude response will be solved using DIIS.
           Start     Size      MaxIter   EConv     ZConv     
           3         7         100       1.00e-06  1.00e-06  
 ------------------------------------------------------------------------------
            Enorm      Zdiff       Comment
 ------------------------------------------------------------------------------
     1     7.15e-02   4.48e-02     
     2     2.77e-02   1.75e-02     
     3     1.46e-02   7.46e-03     
     4     4.65e-03   7.08e-03     Switched to DIIS steps.
     5     2.70e-03   1.14e-03     
     6     1.50e-03   7.64e-04     
     7     6.79e-04   3.71e-04     
     8     3.52e-04   1.01e-04     
     9     1.45e-04   8.19e-05     
    10     8.70e-05   4.02e-06     
    11     4.25e-05   3.59e-07     
    12     2.23e-05   1.06e-06     
    13     9.44e-06   1.42e-07     
    14     5.50e-06   4.70e-07     
    15     2.70e-06   5.12e-07     
    16     1.29e-06   1.75e-07     
    17     6.84e-07   5.25e-08     
 ------------------------------------------------------------------------------
                                   Amplitude response converged.

           Orbital response amplitudes will be solved using DIIS.
           Start     Size      MaxIter   EConv     LConv     
           3         7         100       1.00e-06  1.00e-06  
 ------------------------------------------------------------------------------
            Enorm      Ldiff       Comment
 ------------------------------------------------------------------------------
     1     3.67e-01   1.59e-01     
     2     3.55e-01   9.70e-02     
     3     4.15e-01   1.58e-01     
     4     1.03e-02   1.74e-01     Switched to DIIS steps.
     5     7.50e-03   2.74e-03     
     6     1.35e-03   1.94e-05     
     7     5.00e-04   1.43e-04     
     8     1.01e-04   8.49e-06     
     9     3.28e-05   7.75e-06     
    10     1.01e-05   3.33e-06     
    11     3.80e-06   6.52e-07     
    12     1.05e-06   1.05e-06     
    13     4.28e-07   1.58e-07     
 ------------------------------------------------------------------------------
                                   Orbital response converged.


 EOMDIP-CCSD  CPU 307.33 s  wall 25.20 s
 Transferring MO TPDM to AO TPDM
 Transferring g2_o1o1o1o1
 Transferring g2_o1o1o1v1
 Transferring g2_o1o1v1v1
 Transferring g2_o1v1o1v1
 Transferring g2_o1v1v1v1
 Transferring g2_v1v1v1v1
 Adding separable TPDM
 Computing TPDM gradient
 --------------------------------------------------------
 2e gradient
  Atom          X               Y               Z
 --------------------------------------------------------
    1          1.978524        3.589745        0.000000  
    2          5.442051       -0.077495       -0.000000  
    3         -9.703019       -5.088422       -0.000000  
    4         -0.342409        2.038458        2.143168  
    5         -0.342409        2.038458       -2.143168  
    6          1.483631       -1.250372        2.558798  
    7          1.483631       -1.250372       -2.558798  
 --------------------------------------------------------
 --------------------------------------------------------
 Final gradient
  Atom          X               Y               Z
 --------------------------------------------------------
    1          1.978524        3.589745        0.000000  
    2          5.442051       -0.077495       -0.000000  
    3         -9.703019       -5.088422       -0.000000  
    4         -0.342409        2.038458        2.143168  
    5         -0.342409        2.038458       -2.143168  
    6          1.483631       -1.250372        2.558798  
    7          1.483631       -1.250372       -2.558798  
 --------------------------------------------------------
 Gradient  CPU 524.18 s  wall 46.59 s
 Total ccman2 time:   CPU 1170.42 s  wall 98.53 s


 --------------------------------------------------------------
             Orbital Energies (a.u.) and Symmetries
 --------------------------------------------------------------

 Alpha MOs, Restricted
 -- Occupied --                  
-19.962 -10.807 -10.701  -0.745  -0.488  -0.315  -0.083  -0.047
  1 A'    2 A'    3 A'    4 A'    5 A'    6 A'    7 A'    8 A'                 
  0.112   0.201  -0.161  -0.048   0.113
  9 A'   10 A'    1 A"    2 A"    3 A"                                         
 -- Virtual --                   
  0.522   0.536   0.739   0.761   0.807   0.940   0.984   1.031
 11 A'   12 A'   13 A'   14 A'   15 A'   16 A'   17 A'   18 A'                 
  1.063   1.098   1.127   1.148   1.274   1.311   1.417   1.473
 19 A'   20 A'   21 A'   22 A'   23 A'   24 A'   25 A'   26 A'                 
  1.602   1.707   1.755   1.794   1.815   1.887   1.957   2.097
 27 A'   28 A'   29 A'   30 A'   31 A'   32 A'   33 A'   34 A'                 
  2.148   2.257   2.316   2.469   2.740   2.874   2.923   2.989
 35 A'   36 A'   37 A'   38 A'   39 A'   40 A'   41 A'   42 A'                 
  3.105   3.188   3.287   3.458   3.531   3.623   3.730   3.771
 43 A'   44 A'   45 A'   46 A'   47 A'   48 A'   49 A'   50 A'                 
  3.811   3.907   3.950   4.034   4.155   4.196   4.246   4.462
 51 A'   52 A'   53 A'   54 A'   55 A'   56 A'   57 A'   58 A'                 
  4.522   4.560   4.651   4.702   4.736   4.763   4.885   4.951
 59 A'   60 A'   61 A'   62 A'   63 A'   64 A'   65 A'   66 A'                 
  4.962   5.068   5.174   5.452   5.513   5.606   5.808   5.891
 67 A'   68 A'   69 A'   70 A'   71 A'   72 A'   73 A'   74 A'                 
  5.997   6.031   6.169   6.225   6.363   6.476   6.937   7.098
 75 A'   76 A'   77 A'   78 A'   79 A'   80 A'   81 A'   82 A'                 
  7.457   7.895   8.049  10.682  12.698  13.652   0.548   0.603
 83 A'   84 A'   85 A'   86 A'   87 A'   88 A'    4 A"    5 A"                 
  0.876   0.905   1.011   1.137   1.249   1.381   1.407   1.543
  6 A"    7 A"    8 A"    9 A"   10 A"   11 A"   12 A"   13 A"                 
  1.614   1.653   1.789   1.906   1.921   1.995   2.069   2.525
 14 A"   15 A"   16 A"   17 A"   18 A"   19 A"   20 A"   21 A"                 
  2.836   2.978   3.232   3.342   3.511   3.614   3.639   3.719
 22 A"   23 A"   24 A"   25 A"   26 A"   27 A"   28 A"   29 A"                 
  3.784   3.837   3.887   3.965   4.027   4.148   4.245   4.294
 30 A"   31 A"   32 A"   33 A"   34 A"   35 A"   36 A"   37 A"                 
  4.410   4.453   4.679   4.713   4.832   4.957   5.136   5.248
 38 A"   39 A"   40 A"   41 A"   42 A"   43 A"   44 A"   45 A"                 
  5.458   5.593   5.735   5.856   5.942   6.229   6.371   6.520
 46 A"   47 A"   48 A"   49 A"   50 A"   51 A"   52 A"   53 A"                 
  6.676   6.710   7.055   7.482   7.958
 54 A"   55 A"   56 A"   57 A"   58 A"                                         

 Beta MOs, Restricted
 -- Occupied --                  
-19.962 -10.807 -10.701  -0.745  -0.488  -0.315  -0.083  -0.047
  1 A'    2 A'    3 A'    4 A'    5 A'    6 A'    7 A'    8 A'                 
  0.112   0.201  -0.161  -0.048   0.113
  9 A'   10 A'    1 A"    2 A"    3 A"                                         
 -- Virtual --                   
  0.522   0.536   0.739   0.761   0.807   0.940   0.984   1.031
 11 A'   12 A'   13 A'   14 A'   15 A'   16 A'   17 A'   18 A'                 
  1.063   1.098   1.127   1.148   1.274   1.311   1.417   1.473
 19 A'   20 A'   21 A'   22 A'   23 A'   24 A'   25 A'   26 A'                 
  1.602   1.707   1.755   1.794   1.815   1.887   1.957   2.097
 27 A'   28 A'   29 A'   30 A'   31 A'   32 A'   33 A'   34 A'                 
  2.148   2.257   2.316   2.469   2.740   2.874   2.923   2.989
 35 A'   36 A'   37 A'   38 A'   39 A'   40 A'   41 A'   42 A'                 
  3.105   3.188   3.287   3.458   3.531   3.623   3.730   3.771
 43 A'   44 A'   45 A'   46 A'   47 A'   48 A'   49 A'   50 A'                 
  3.811   3.907   3.950   4.034   4.155   4.196   4.246   4.462
 51 A'   52 A'   53 A'   54 A'   55 A'   56 A'   57 A'   58 A'                 
  4.522   4.560   4.651   4.702   4.736   4.763   4.885   4.951
 59 A'   60 A'   61 A'   62 A'   63 A'   64 A'   65 A'   66 A'                 
  4.962   5.068   5.174   5.452   5.513   5.606   5.808   5.891
 67 A'   68 A'   69 A'   70 A'   71 A'   72 A'   73 A'   74 A'                 
  5.997   6.031   6.169   6.225   6.363   6.476   6.937   7.098
 75 A'   76 A'   77 A'   78 A'   79 A'   80 A'   81 A'   82 A'                 
  7.457   7.895   8.049  10.682  12.698  13.652   0.548   0.603
 83 A'   84 A'   85 A'   86 A'   87 A'   88 A'    4 A"    5 A"                 
  0.876   0.905   1.011   1.137   1.249   1.381   1.407   1.543
  6 A"    7 A"    8 A"    9 A"   10 A"   11 A"   12 A"   13 A"                 
  1.614   1.653   1.789   1.906   1.921   1.995   2.069   2.525
 14 A"   15 A"   16 A"   17 A"   18 A"   19 A"   20 A"   21 A"                 
  2.836   2.978   3.232   3.342   3.511   3.614   3.639   3.719
 22 A"   23 A"   24 A"   25 A"   26 A"   27 A"   28 A"   29 A"                 
  3.784   3.837   3.887   3.965   4.027   4.148   4.245   4.294
 30 A"   31 A"   32 A"   33 A"   34 A"   35 A"   36 A"   37 A"                 
  4.410   4.453   4.679   4.713   4.832   4.957   5.136   5.248
 38 A"   39 A"   40 A"   41 A"   42 A"   43 A"   44 A"   45 A"                 
  5.458   5.593   5.735   5.856   5.942   6.229   6.371   6.520
 46 A"   47 A"   48 A"   49 A"   50 A"   51 A"   52 A"   53 A"                 
  6.676   6.710   7.055   7.482   7.958
 54 A"   55 A"   56 A"   57 A"   58 A"                                         
 --------------------------------------------------------------

          Ground-State Mulliken Net Atomic Charges

     Atom                 Charge (a.u.)
  ----------------------------------------
      1 C                    -0.024188
      2 C                    -0.173991
      3 O                    -0.519694
      4 H                     0.111027
      5 H                     0.111027
      6 H                     0.247909
      7 H                     0.247909
  ----------------------------------------
  Sum of atomic charges =     0.000000

 -----------------------------------------------------------------
                    Cartesian Multipole Moments
 -----------------------------------------------------------------
    Charge (ESU x 10^10)
                -0.0000
    Dipole Moment (Debye)
         X      -5.7736      Y      -0.6605      Z       0.0000
       Tot       5.8112
    Quadrupole Moments (Debye-Ang)
        XX     -20.9006     XY      -2.5757     YY     -17.7564
        XZ       0.0000     YZ       0.0000     ZZ     -17.0864
    Octopole Moments (Debye-Ang^2)
       XXX     -14.8416    XXY       2.1368    XYY      -2.0315
       YYY       1.9450    XXZ       0.0000    XYZ       0.0000
       YYZ      -0.0000    XZZ      -4.1932    YZZ       0.9092
       ZZZ      -0.0000
    Hexadecapole Moments (Debye-Ang^3)
      XXXX    -147.1811   XXXY      -1.1754   XXYY     -29.2421
      XYYY      -0.8385   YYYY     -41.2313   XXXZ       0.0000
      XXYZ       0.0000   XYYZ      -0.0000   YYYZ       0.0000
      XXZZ     -25.5663   XYZZ      -2.6403   YYZZ      -9.7505
      XZZZ      -0.0000   YZZZ       0.0000   ZZZZ     -25.8490
 -----------------------------------------------------------------
 DrvMan completing analytic gradient of the correlated energy
 Correlated dipole moment
            1
    1  -2.2715060
    2  -0.2598449
    3   0.0000000
 Energy read as -153.317356627
 Full Analytical Gradient: (in a.u., or Hartree/Bohr)
             1             2             3             4             5
    1    0.04852206   -0.05690781   -0.01003803   -0.00006163   -0.00006163
    2    0.02327284   -0.02762280   -0.00960468   -0.00750126   -0.00750126
    3   -0.00000000    0.00000000    0.00000000    0.00264691   -0.00264691
             6             7
    1    0.00927353    0.00927353
    2    0.01447857    0.01447857
    3    0.00198754   -0.00198754
 Gradient time:  CPU 1.22 s  wall 1.10 s

     Step 1	:
        Energy is -153.3173566266
                            Maximum         Tolerance       Converged?
         Gradient           2.58056167e-02	3.00000000e-04	false
         Displacement       3.29173491e-01	1.20000000e-03	false
         Energy change      3.46140142e-02	1.00000000e-06	false


	OPTIMIZATION CYCLE:	2





 Scaling Magnitude of Eigenvalues
 	Minimum: -25.00000000	 Maximum: 25.00000000
 15 Hessian Eigenvalues to form next step
   0.00714320   0.02527269   0.07921684   0.08098155   0.15592394
   0.16000000   0.16000000   0.16000523   0.24040669   0.31172544
   0.31318882   0.34583347   0.34800800   0.36602545   0.54511150


 Minimum Search taking a RFO step
 Searching for Lambda that minimizes along all modes
	Value of Lambda   -0.02214262
	Norm  of Stepsize  0.61092849
	RMS   of Stepsize  0.15774106

	Performing Iterative Coordinate Back-Transformation

	  Starting from Previous Position

	  iter:	0	rms: 9.3058785440e-02	maxdev: 1.9109427891e-01
	  iter:	1	rms: 1.1667689150e-02	maxdev: 2.3595653249e-02
	  iter:	2	rms: 6.0430936052e-05	maxdev: 1.4900528170e-04
	  iter:	3	rms: 0.0000000000e+00	maxdev: 0.0000000000e+00	 Success!

	Finished Iterative Coordinate Back-Transformation
 ----------------------------------------------------------------
             Standard Nuclear Orientation (Angstroms)
    I     Atom           X                Y                Z
 ----------------------------------------------------------------
    1      C       0.1748835315    -0.4533293514     0.0000000000
    2      C      -1.0583141424     0.2278119796     0.0000000000
    3      O       1.4128298810     0.2634475255     0.0000000000
    4      H       0.1405931565    -1.0761946877    -0.9098322752
    5      H       0.1405931565    -1.0761946877     0.9098322752
    6      H      -1.5558103536     0.5112214668    -0.9146607226
    7      H      -1.5558103536     0.5112214668     0.9146607226
 ----------------------------------------------------------------
 Molecular Point Group                 Cs    NOp =  2
 Largest Abelian Subgroup              Cs    NOp =  2
 Nuclear Repulsion Energy =          67.51881933 hartrees
 There are       13 alpha and       13 beta electrons

                       Distance Matrix (Angstroms)
             C (  1)   C (  2)   O (  3)   H (  4)   H (  5)   H (  6)
   C (  2)  1.408804
   O (  3)  1.430483  2.471401
   H (  4)  1.103146  1.991383  2.059374
   H (  5)  1.103146  1.991383  2.059374  1.819665
   H (  6)  2.182261  1.079086  3.116219  2.323295  2.954056
   H (  7)  2.182261  1.079086  3.116219  2.954056  2.323295  1.829321


 Applying Cartesian multipole field
    Component          Value
    ---------          -----
     (2,0,0)        1.00000E-11
     (0,2,0)        2.00000E-10
     (0,0,2)       -3.00000E-10
 Nucleus-field energy     = 9.5219573300e-10 hartrees
 Requested basis set is cc-pVTZ
 There are 54 shells and 146 basis functions
 A cutoff of  1.0D-14 yielded   1480 shell pairs
 There are     10936 function pairs (     14022 Cartesian)
 Smallest overlap matrix eigenvalue = 8.67E-04
 Guess MOs from SCF MO coefficient file

 -----------------------------------------------------------------------
  General SCF calculation program by
  Eric Jon Sundstrom, Paul Horn, Yuezhi Mao, Dmitri Zuev, Alec White,
  David Stuck, Shaama M.S., Shane Yost, Joonho Lee, David Small,
  Daniel Levine, Susi Lehtola, Hugh Burton, Evgeny Epifanovsky,
  Bang C. Huynh
 -----------------------------------------------------------------------
 Hartree-Fock
 A restricted SCF calculation will be
 performed using DIIS
 SCF converges when DIIS error is below 1.0e-08
 User-specified cutoff of 10e-14
 used for neglect of 2-electron integrals.
 A cutoff of 10e-14
 used for neglect of overlap integrals.
 Incremental Fock algorithm is on at the start.
 ---------------------------------------
  Cycle       Energy         DIIS error
 ---------------------------------------
    1    -152.5609991556      2.17e-03  
    2    -152.5757944235      5.87e-04  
    3    -152.5771746807      3.23e-04  
    4    -152.5774651581      8.26e-05  
    5    -152.5775215380      2.35e-05  
    6    -152.5775288102      7.78e-06  
    7    -152.5775300193      2.96e-06  
    8    -152.5775301527      1.39e-06  
    9    -152.5775301865      3.90e-07  
   10    -152.5775301899      1.69e-07  
   11    -152.5775301907      9.06e-08  
   12    -152.5775301909      4.08e-08  
   13    -152.5775301910      1.03e-08  
   14    -152.5775301910      2.41e-09  Convergence criterion met
 ---------------------------------------
 SCF time:   CPU 36.10s  wall 3.00s 
 SCF   energy =  -152.57753019
 Total energy =  -152.57753019


 ------------------------------------------------------------------------------

   CCMAN2: suite of methods based on coupled cluster
           and equation of motion theories.

   Components:
   * libvmm-1.3-trunk
     by Evgeny Epifanovsky, Ilya Kaliman.
   * libtensor-2.5-trunk
     by Evgeny Epifanovsky, Michael Wormit, Dmitry Zuev, Sam Manzer, 
        Ilya Kaliman.
   * libcc-2.5-trunk
     by Evgeny Epifanovsky, Arik Landau, Tomasz Kus, Kirill Khistyaev, 
        Dmitry Zuev, Prashant Manohar, Xintian Feng, Anna Krylov, 
        Matthew Goldey, Alec White, Thomas Jagau, Kaushik Nanda, 
        Anastasia Gunina, Alexander Kunitsa, Joonho Lee.

   CCMAN original authors:
   Anna I. Krylov, C. David Sherrill, Steven R. Gwaltney,
   Edward F. C. Byrd (2000)
   Sergey V. Levchenko, Lyudmila V. Slipchenko, Tao Wang,
   Ana-Maria C. Cristian (2003)
[...]

 Computing CCSD intermediates for later calculations in double precision
 Finished.


 CCSD  CPU 246.12 s  wall 18.74 s

 EOMEE-CCSD  CPU 0.70 s  wall 0.26 s
        Solving for EOMDIP-CCSD A' transitions to singlet states

           EOMDIP-CCSD right amplitudes will be solved using Davidson.
        Amplitudes will be solved using standard  algorithm.
     Hard-coded thresholds: 
     LinDepThresh=1.00e-15  NormThresh=1.00e-06  ReorthogonThresh=1.00e-02

      Roots     MaxVec    MaxIter   Precond   Conv      Shift    
      2         120       60        1         1.00e-06  0.00e+00  
 ------------------------------------------------------------------------------
      Iter ConvRoots NVecs ResNorm^2 Current eigenvalues (eV)
 ------------------------------------------------------------------------------
      0    0      2     3.22e-01   2.4462   2.6438   
      1    0      4     1.49e-01   -2.5895   -1.7408   
      2    0      6     9.94e-03   -4.3754   -2.9486   
      3    0      8     3.06e-03   -4.5732   -3.1539   
      4    0      10    9.64e-04   -4.6128   -3.2440   
      5    0      12    1.70e-04   -4.6222   -3.2529   
      6    0      14    3.51e-05   -4.6271   -3.2577   
      7    0      16    1.02e-05   -4.6277   -3.2589   
      8    0      18    2.60e-06   -4.6275   -3.2587   
      9    2      20    5.89e-07   -4.6276*  -3.2587*  

     Davidson procedure converged

 EOMDIP-CCSD transition 1/A'
 Total energy = -153.38055370 a.u.  Excitation energy = -4.6276 eV.
 R2^2 = 0.8866  R3^2 = 0.1134  Res^2 = 7.24e-07
 Conv-d = yes

 Amplitude    Transitions between orbitals
  0.5753       9 (A') A      10 (A') B                 ->    infty        
 -0.5753       9 (A') B      10 (A') A                 ->    infty        
  0.3927       10 (A') A     10 (A') B                 ->    infty        
 -0.3927       10 (A') B     10 (A') A                 ->    infty        
 -0.1388       8 (A') A      9 (A') B                  ->    infty        
  0.1388       8 (A') B      9 (A') A                  ->    infty        
 -0.1237       9 (A') A      9 (A') B                  ->    infty        
  0.1237       9 (A') B      9 (A') A                  ->    infty        

              Summary of significant orbitals:

               Number  Type             Irrep      Energy
               10      Occ  Alpha       8 (A')     -0.0031
               11      Occ  Alpha       9 (A')      0.1282
               13      Occ  Alpha      10 (A')      0.2108
               10      Occ  Beta        8 (A')     -0.0031
               11      Occ  Beta        9 (A')      0.1282
               13      Occ  Beta       10 (A')      0.2108


 EOMDIP-CCSD transition 2/A'
 Total energy = -153.33024589 a.u.  Excitation energy = -3.2587 eV.
 R2^2 = 0.8943  R3^2 = 0.1057  Res^2 = 4.53e-07
 Conv-d = yes

 Amplitude    Transitions between orbitals
 -0.7970       10 (A') A     10 (A') B                 ->    infty        
  0.7970       10 (A') B     10 (A') A                 ->    infty        
  0.2797       9 (A') A      10 (A') B                 ->    infty        
 -0.2797       9 (A') B      10 (A') A                 ->    infty        
 -0.2013       8 (A') A      10 (A') B                 ->    infty        
  0.2013       8 (A') B      10 (A') A                 ->    infty        
  0.1281       8 (A') A      8 (A') B                  ->    infty        
 -0.1281       8 (A') B      8 (A') A                  ->    infty        

              Summary of significant orbitals:

               Number  Type             Irrep      Energy
               10      Occ  Alpha       8 (A')     -0.0031
               11      Occ  Alpha       9 (A')      0.1282
               13      Occ  Alpha      10 (A')      0.2108
               10      Occ  Beta        8 (A')     -0.0031
               11      Occ  Beta        9 (A')      0.1282
               13      Occ  Beta       10 (A')      0.2108


           EOMDIP-CCSD left amplitudes will be solved using Davidson.
        Amplitudes will be solved using MOM  algorithm.
     Hard-coded thresholds: 
     LinDepThresh=1.00e-15  NormThresh=1.00e-06  ReorthogonThresh=1.00e-02

      Roots     MaxVec    MaxIter   Precond   Conv      Shift    
      2         120       60        1         1.00e-06  0.00e+00  
 ------------------------------------------------------------------------------
      Iter ConvRoots NVecs ResNorm^2 Current eigenvalues (eV)
 ------------------------------------------------------------------------------
      0    0      2     1.03e-02   -4.6276   -3.2587   
      1    0      4     3.51e-03   -4.6277   -3.2587   
      2    0      6     8.86e-05   -4.6276   -3.2587   
      3    0      8     1.61e-05   -4.6277   -3.2587   
      4    0      10    2.28e-06   -4.6276   -3.2587   
      5    2      12    6.71e-07   -4.6276*  -3.2587*  

     Davidson procedure converged

Running a double precision version
           EOM amplitude response will be solved using DIIS.
           Start     Size      MaxIter   EConv     ZConv     
           3         7         100       1.00e-06  1.00e-06  
 ------------------------------------------------------------------------------
            Enorm      Zdiff       Comment
 ------------------------------------------------------------------------------
     1     6.97e-02   4.45e-02     
     2     2.64e-02   1.68e-02     
     3     1.36e-02   6.93e-03     
     4     4.20e-03   6.31e-03     Switched to DIIS steps.
     5     2.40e-03   9.49e-04     
     6     1.41e-03   5.82e-04     
     7     6.75e-04   2.95e-04     
     8     3.82e-04   9.02e-05     
     9     1.75e-04   8.61e-05     
    10     1.09e-04   8.03e-06     
    11     5.31e-05   3.10e-06     
    12     2.74e-05   2.34e-07     
    13     1.27e-05   8.60e-07     
    14     7.41e-06   7.20e-07     
    15     3.55e-06   6.67e-07     
    16     1.67e-06   1.45e-07     
    17     9.93e-07   2.82e-08     
 ------------------------------------------------------------------------------
                                   Amplitude response converged.

           Orbital response amplitudes will be solved using DIIS.
           Start     Size      MaxIter   EConv     LConv     
           3         7         100       1.00e-06  1.00e-06  
 ------------------------------------------------------------------------------
            Enorm      Ldiff       Comment
 ------------------------------------------------------------------------------
     1     3.54e-01   1.57e-01     
     2     3.59e-01   7.34e-02     
     3     4.28e-01   1.40e-01     
     4     1.64e-02   1.75e-01     Switched to DIIS steps.
     5     7.01e-03   1.22e-03     
     6     9.59e-04   5.42e-04     
     7     2.99e-04   1.89e-04     
     8     1.10e-04   1.57e-05     
     9     3.21e-05   4.23e-06     
    10     1.10e-05   4.77e-06     
    11     3.72e-06   2.24e-07     
    12     1.10e-06   8.96e-07     
    13     7.83e-07   1.28e-07     
 ------------------------------------------------------------------------------
                                   Orbital response converged.


 EOMDIP-CCSD  CPU 311.64 s  wall 25.60 s
 Transferring MO TPDM to AO TPDM
 Transferring g2_o1o1o1o1
 Transferring g2_o1o1o1v1
 Transferring g2_o1o1v1v1
 Transferring g2_o1v1o1v1
 Transferring g2_o1v1v1v1
 Transferring g2_v1v1v1v1
 Adding separable TPDM
 Computing TPDM gradient
 --------------------------------------------------------
 2e gradient
  Atom          X               Y               Z
 --------------------------------------------------------
    1          0.920764        3.588194        0.000000  
    2          4.837159       -2.288351       -0.000000  
    3         -8.849163       -3.799739       -0.000000  
    4         -0.250985        1.973283        2.643195  
    5         -0.250985        1.973283       -2.643195  
    6          1.796604       -0.723335        2.610164  
    7          1.796604       -0.723335       -2.610164  
 --------------------------------------------------------
 --------------------------------------------------------
 Final gradient
  Atom          X               Y               Z
 --------------------------------------------------------
    1          0.920764        3.588194        0.000000  
    2          4.837159       -2.288351       -0.000000  
    3         -8.849163       -3.799739       -0.000000  
    4         -0.250985        1.973283        2.643195  
    5         -0.250985        1.973283       -2.643195  
    6          1.796604       -0.723335        2.610164  
    7          1.796604       -0.723335       -2.610164  
 --------------------------------------------------------
 Gradient  CPU 600.03 s  wall 49.96 s
 Total ccman2 time:   CPU 1246.58 s  wall 102.96 s


 --------------------------------------------------------------
             Orbital Energies (a.u.) and Symmetries
 --------------------------------------------------------------

 Alpha MOs, Restricted
 -- Occupied --                  
-19.939 -10.796 -10.699  -0.692  -0.506  -0.314  -0.095  -0.003
  1 A'    2 A'    3 A'    4 A'    5 A'    6 A'    7 A'    8 A'                 
  0.128   0.211  -0.177  -0.051   0.129
  9 A'   10 A'    1 A"    2 A"    3 A"                                         
 -- Virtual --                   
  0.520   0.540   0.734   0.757   0.800   0.912   0.964   1.035
 11 A'   12 A'   13 A'   14 A'   15 A'   16 A'   17 A'   18 A'                 
  1.052   1.065   1.134   1.187   1.303   1.323   1.447   1.496
 19 A'   20 A'   21 A'   22 A'   23 A'   24 A'   25 A'   26 A'                 
  1.627   1.683   1.752   1.780   1.864   1.930   1.982   2.039
 27 A'   28 A'   29 A'   30 A'   31 A'   32 A'   33 A'   34 A'                 
  2.176   2.242   2.312   2.467   2.683   2.825   2.856   2.986
 35 A'   36 A'   37 A'   38 A'   39 A'   40 A'   41 A'   42 A'                 
  3.111   3.192   3.344   3.473   3.563   3.667   3.692   3.776
 43 A'   44 A'   45 A'   46 A'   47 A'   48 A'   49 A'   50 A'                 
  3.800   3.900   3.951   4.033   4.143   4.232   4.271   4.498
 51 A'   52 A'   53 A'   54 A'   55 A'   56 A'   57 A'   58 A'                 
  4.532   4.589   4.648   4.740   4.782   4.815   4.937   4.993
 59 A'   60 A'   61 A'   62 A'   63 A'   64 A'   65 A'   66 A'                 
  5.010   5.105   5.217   5.439   5.508   5.629   5.772   5.883
 67 A'   68 A'   69 A'   70 A'   71 A'   72 A'   73 A'   74 A'                 
  5.937   6.100   6.248   6.286   6.434   6.494   6.748   7.039
 75 A'   76 A'   77 A'   78 A'   79 A'   80 A'   81 A'   82 A'                 
  7.466   7.823   8.087  10.210  12.480  14.516   0.540   0.587
 83 A'   84 A'   85 A'   86 A'   87 A'   88 A'    4 A"    5 A"                 
  0.883   0.985   1.021   1.154   1.229   1.378   1.417   1.531
  6 A"    7 A"    8 A"    9 A"   10 A"   11 A"   12 A"   13 A"                 
  1.595   1.652   1.821   1.900   1.950   2.006   2.138   2.529
 14 A"   15 A"   16 A"   17 A"   18 A"   19 A"   20 A"   21 A"                 
  2.779   3.089   3.148   3.341   3.558   3.587   3.632   3.706
 22 A"   23 A"   24 A"   25 A"   26 A"   27 A"   28 A"   29 A"                 
  3.743   3.805   3.924   3.978   4.107   4.136   4.209   4.355
 30 A"   31 A"   32 A"   33 A"   34 A"   35 A"   36 A"   37 A"                 
  4.426   4.543   4.616   4.773   4.871   4.920   5.103   5.372
 38 A"   39 A"   40 A"   41 A"   42 A"   43 A"   44 A"   45 A"                 
  5.589   5.694   5.742   5.896   6.114   6.225   6.469   6.528
 46 A"   47 A"   48 A"   49 A"   50 A"   51 A"   52 A"   53 A"                 
  6.621   6.769   6.935   7.485   7.914
 54 A"   55 A"   56 A"   57 A"   58 A"                                         

 Beta MOs, Restricted
 -- Occupied --                  
-19.939 -10.796 -10.699  -0.692  -0.506  -0.314  -0.095  -0.003
  1 A'    2 A'    3 A'    4 A'    5 A'    6 A'    7 A'    8 A'                 
  0.128   0.211  -0.177  -0.051   0.129
  9 A'   10 A'    1 A"    2 A"    3 A"                                         
 -- Virtual --                   
  0.520   0.540   0.734   0.757   0.800   0.912   0.964   1.035
 11 A'   12 A'   13 A'   14 A'   15 A'   16 A'   17 A'   18 A'                 
  1.052   1.065   1.134   1.187   1.303   1.323   1.447   1.496
 19 A'   20 A'   21 A'   22 A'   23 A'   24 A'   25 A'   26 A'                 
  1.627   1.683   1.752   1.780   1.864   1.930   1.982   2.039
 27 A'   28 A'   29 A'   30 A'   31 A'   32 A'   33 A'   34 A'                 
  2.176   2.242   2.312   2.467   2.683   2.825   2.856   2.986
 35 A'   36 A'   37 A'   38 A'   39 A'   40 A'   41 A'   42 A'                 
  3.111   3.192   3.344   3.473   3.563   3.667   3.692   3.776
 43 A'   44 A'   45 A'   46 A'   47 A'   48 A'   49 A'   50 A'                 
  3.800   3.900   3.951   4.033   4.143   4.232   4.271   4.498
 51 A'   52 A'   53 A'   54 A'   55 A'   56 A'   57 A'   58 A'                 
  4.532   4.589   4.648   4.740   4.782   4.815   4.937   4.993
 59 A'   60 A'   61 A'   62 A'   63 A'   64 A'   65 A'   66 A'                 
  5.010   5.105   5.217   5.439   5.508   5.629   5.772   5.883
 67 A'   68 A'   69 A'   70 A'   71 A'   72 A'   73 A'   74 A'                 
  5.937   6.100   6.248   6.286   6.434   6.494   6.748   7.039
 75 A'   76 A'   77 A'   78 A'   79 A'   80 A'   81 A'   82 A'                 
  7.466   7.823   8.087  10.210  12.480  14.516   0.540   0.587
 83 A'   84 A'   85 A'   86 A'   87 A'   88 A'    4 A"    5 A"                 
  0.883   0.985   1.021   1.154   1.229   1.378   1.417   1.531
  6 A"    7 A"    8 A"    9 A"   10 A"   11 A"   12 A"   13 A"                 
  1.595   1.652   1.821   1.900   1.950   2.006   2.138   2.529
 14 A"   15 A"   16 A"   17 A"   18 A"   19 A"   20 A"   21 A"                 
  2.779   3.089   3.148   3.341   3.558   3.587   3.632   3.706
 22 A"   23 A"   24 A"   25 A"   26 A"   27 A"   28 A"   29 A"                 
  3.743   3.805   3.924   3.978   4.107   4.136   4.209   4.355
 30 A"   31 A"   32 A"   33 A"   34 A"   35 A"   36 A"   37 A"                 
  4.426   4.543   4.616   4.773   4.871   4.920   5.103   5.372
 38 A"   39 A"   40 A"   41 A"   42 A"   43 A"   44 A"   45 A"                 
  5.589   5.694   5.742   5.896   6.114   6.225   6.469   6.528
 46 A"   47 A"   48 A"   49 A"   50 A"   51 A"   52 A"   53 A"                 
  6.621   6.769   6.935   7.485   7.914
 54 A"   55 A"   56 A"   57 A"   58 A"                                         
 --------------------------------------------------------------

          Ground-State Mulliken Net Atomic Charges

     Atom                 Charge (a.u.)
  ----------------------------------------
      1 C                    -0.064424
      2 C                    -0.211106
      3 O                    -0.516796
      4 H                     0.151553
      5 H                     0.151553
      6 H                     0.244609
      7 H                     0.244609
  ----------------------------------------
  Sum of atomic charges =     0.000000

 -----------------------------------------------------------------
                    Cartesian Multipole Moments
 -----------------------------------------------------------------
    Charge (ESU x 10^10)
                -0.0000
    Dipole Moment (Debye)
         X      -5.5508      Y      -0.6996      Z      -0.0000
       Tot       5.5947
    Quadrupole Moments (Debye-Ang)
        XX     -21.1430     XY      -2.2123     YY     -17.7622
        XZ       0.0000     YZ      -0.0000     ZZ     -16.6322
    Octopole Moments (Debye-Ang^2)
       XXX     -16.7618    XXY       2.7960    XYY      -1.9453
       YYY       1.4616    XXZ      -0.0000    XYZ       0.0000
       YYZ      -0.0000    XZZ      -4.8102    YZZ       0.1257
       ZZZ      -0.0000
    Hexadecapole Moments (Debye-Ang^3)
      XXXX    -145.9415   XXXY       0.9314   XXYY     -29.7722
      XYYY       0.8695   YYYY     -40.2105   XXXZ       0.0000
      XXYZ      -0.0000   XYYZ       0.0000   YYYZ      -0.0000
      XXZZ     -25.4618   XYZZ      -1.9074   YYZZ      -9.4152
      XZZZ       0.0000   YZZZ      -0.0000   ZZZZ     -25.0456
 -----------------------------------------------------------------
 DrvMan completing analytic gradient of the correlated energy
 Correlated dipole moment
            1
    1  -2.1838494
    2  -0.2752456
    3  -0.0000000
 Energy read as -153.330245895
 Full Analytical Gradient: (in a.u., or Hartree/Bohr)
             1             2             3             4             5
    1   -0.00001514   -0.00001156    0.00003218   -0.00000704   -0.00000704
    2   -0.00001641    0.00000632    0.00002076   -0.00000084   -0.00000084
    3   -0.00000000    0.00000000    0.00000000   -0.00000548    0.00000548
             6             7
    1    0.00000430    0.00000430
    2   -0.00000449   -0.00000449
    3   -0.00000273    0.00000273
 Gradient time:  CPU 3.20 s  wall 3.09 s

     Step 9	:
        Energy is -153.3302458945
                            Maximum         Tolerance       Converged?
         Gradient           2.20411828e-05	3.00000000e-04	true
         Displacement       1.61239395e-03	1.20000000e-03	false
         Energy change      3.48783999e-07	1.00000000e-06	true

	 Optimization Converged in 9 cycles

 *****************************************************
             End of BFGS Algorithm
 *****************************************************
		----------------------------------
		   Verification of Optimization
		----------------------------------

 Eigenvalues of Hessian in Optimization Verification
   0.00714320   0.01708407   0.04145296   0.07921684   0.10828389
   0.14820141   0.16000000   0.16000000   0.25107649   0.28538544
   0.31318882   0.32286893   0.34800800   0.34829900   0.47388738


 Found a minimum
		---------------------------------
		       End of Verification
		---------------------------------

 Final energy is -153.330245894518

	******************************
	**  OPTIMIZATION CONVERGED  **
	******************************
 ----------------------------------------------------------------
             Standard Nuclear Orientation (Angstroms)
    I     Atom           X                Y                Z
 ----------------------------------------------------------------
    1      C       0.1113910720    -0.5012195168     0.0000000000
    2      C      -1.0861727973     0.2336301108     0.0000000000
    3      O       1.4200546418     0.2654392178     0.0000000000
    4      H       0.1879433071    -1.0784503785    -0.9207509170
    5      H       0.1879433071    -1.0784503785     0.9207509170
    6      H      -1.5610973274     0.5335173286    -0.9197662627
    7      H      -1.5610973274     0.5335173286     0.9197662627
 ----------------------------------------------------------------
 Molecular Point Group                 Cs    NOp =  2
 Largest Abelian Subgroup              Cs    NOp =  2
 Nuclear Repulsion Energy =          66.40818084 hartrees
 There are       13 alpha and       13 beta electrons

Z-matrix Print:
$molecule
-2 1
C 
H  1 1.089421
H  1 1.089421 2 115.381299
C  1 1.405049 2 109.694662 3 124.472541 0
H  4 1.077709 1 121.408612 2 26.593620 0
H  4 1.077709 1 121.408612 2 -154.305134 0
O  1 1.516696 2 101.958218 3 -109.566745 0
$end

 -----------------------------------------------------------------------
                  END OF GEOMETRY OPTIMIZER USING LIBOPT3               
 -----------------------------------------------------------------------
 Total job time:  1842.39s(wall), 13343.63s(cpu) 
 Wed Jan 21 14:04:39 2026

        *************************************************************
        *                                                           *
        *  Thank you very much for using Q-Chem.  Have a nice day.  *
        *                                                           *
        *************************************************************


