                  Welcome to Q-Chem
     A Quantum Leap Into The Future Of Chemistry


 Q-Chem 6.4 (devel), Q-Chem, Inc., Pleasanton, CA (2025)

 E. Epifanovsky,  A. T. B. Gilbert,  Xintian Feng,  Joonho Lee,  Yuezhi Mao,  
 N. Mardirossian,  P. Pokhilko,  A. White,  M. Wormit,  M. P. Coons,  
 A. L. Dempwolff,  Zhengting Gan,  D. Hait,  P. R. Horn,  L. D. Jacobson,  
 I. Kaliman,  J. Kussmann,  A. W. Lange,  Ka Un Lao,  D. S. Levine,  Jie Liu,  
 S. C. McKenzie,  A. F. Morrison,  K. D. Nanda,  F. Plasser,  D. R. Rehn,  
 M. L. Vidal,  Zhi-Qiang You,  Ying Zhu,  Huseyin Aksu,  B. Alam,  
 B. Albrecht,  A. Aldossary,  E. Alguire,  J. H. Andersen,  
 J. E. Arias-Martinez,  V. Athavale,  F. Ballesteros,  D. Barton,  K. Begam,  
 A. Behn,  N. Bellonzi,  Y. A. Bernard,  E. J. Berquist,  H. Burton,  
 S. Camps,  A. Carreras,  K. Carter-Fenk,  Mathew Chow,  Jeng-Da Chai,  
 Arnab Chakraborty,  Romit Chakraborty,  Chandrima Chakravarty,  Junhan Chen,  
 A. D. Chien,  K. D. Closser,  V. Cofer-Shabica,  L. Cunha,  S. Dasgupta,  
 Jia Deng,  Joseph Dickinson,  M. de Wergifosse,  M. Diedenhofen,  
 L. B. Dittmer,  Hainam Do,  Wenjie Dou,  S. Ehlert,  Po-Tung Fang,  
 Anthuan Ferino-Pérez,  S. Fatehi,  Qingguo Feng,  Jonathan Fetherolf,  
 T. Friedhoff,  Thomas Froitzheim,  Sarai Folkestad,  B. Ganoe,  J. Gayvert,  
 Qinghui Ge,  G. Gidofalvi,  M. Gimferrer,  G. Giudetti,  M. Goldey,  
 Montgomery Gray,  J. Gomes,  C. Gonzalez-Espinoza,  S. Gulania,  A. Gunina,  
 J. A. Gyamfi,  M. W. D. Hanson-Heine,  P. H. P. Harbach,  A. W. Hauser,  
 M. F. Herbst,  M. Hernandez Vera,  M. Hodecker,  Z. C. Holden,  S. Houck,  
 Xunkun Huang,  Kerwin Hui,  B. C. Huynh,  K. Ikeda,  M. Ivanov,  
 Nayanthara K. Jayadev,  Hyunjun Ji,  Zuxin Jin,  Hanjie Jiang,  
 Subrata Jana,  B. Kaduk,  S. Kaehler,  Richard Kang,  K. Khistyaev,  
 Jaehoon Kim,  Yongbin Kim,  P. Klunzinger,  Z. Koczor-Benda,  
 Joong Hoon Koh,  Elena Kolodzeiski,  D. Kosenkov,  Saikiran Kotaru,  
 L. Koulias,  T. Kowalczyk,  C. M. Krauter,  K. Kue,  A. Kunitsa,  T. Kus,  
 A. Landau,  C. W. Lander,  K. V. Lawler,  D. Lefrancois,  S. Lehtola,  
 Rain Li,  Shaozhi Li,  Tao E. Li,  Yi-Pei Li,  Jiashu Liang,  M. Liebenthal,  
 Hung-Hsuan Lin,  You-Sheng Lin,  Fenglai Liu,  Kuan-Yu Liu,  Xiao Liu,  
 M. Loipersberger,  A. Luenser,  C. Malbon,  Aniket Mandal,  Manisha,  
 A. Manjanath,  P. Manohar,  E. Mansoor,  S. F. Manzer,  Shan-Ping Mao,  
 A. V. Marenich,  T. Markovich,  S. Mason,  F. Matz,  S. A. Maurer,  
 Samuel May,  Alexandra McIsaac,  P. F. McLaughlin,  M. F. S. J. Menger,  
 J.-M. Mewes,  S. A. Mewes,  R. E. Moorby,  P. Morgante,  
 Mohammad Mostafanejad,  Madhubani Mukherjee,  J. W. Mullinax,  Quyen Nguyen,  
 Avik Kumar Ojha,  K. J. Oosterbaan,  Eno Paenurk,  Xiaoliang Pan,  G. Paran,  
 V. Parravicini,  R. L. Patterson,  Alexander C. Paul,  Suranjan K. Paul,  
 F. Pavosevic,  Zheng Pei,  P. Pokhilko,  S. Prager,  E. I. Proynov,  
 E. Ramos,  B. Rana,  A. E. Rask,  A. Rettig,  R. M. Richard,  F. Rob,  
 E. Rossomme,  S. Roy,  T. Scheele,  M. Scheurer,  M. Schneider,  
 P. E. Schneider,  Tim K. Schramm,  N. Sergueev,  S. M. Sharada,  
 Hengyuan Shen,  W. Skomorowski,  D. W. Small,  C. J. Stein,  
 Alistair J. Sterling,  Yingli Su,  Yu-Chuan Su,  E. J. Sundstrom,  
 J. Talbot,  J. A. Tan,  Zhen Tao,  Hung-Hsuan Teh,  J. Thirman,  C. Titeca,  
 N. Tkachenko,  Hung-Yi Tsai,  T. Tsuchimochi,  N. M. Tubman,  C. Utku,  
 S. P. Veccham,  O. Vydrov,  Z. Wang,  Markus G. S. Weiss,  Rahel Weiss,  
 J. Wenzel,  Jonathan Wong,  J. Witte,  H. Wu,  Yanze Wu,  A. Yamada,  
 Chou-Hsun Yang,  Kun Yao,  S. Yeganeh,  S. R. Yost,  Qi Yu,  A. Zech,  
 F. Zeller,  Chongxiao Zhao,  T. Zhao,  Igor Ying Zhang,  Xing Zhang,  
 Yu Zhang,  Zeyi Zhang,  D. Zuev,  A. Aspuru-Guzik,  A. T. Bell,  
 N. A. Besley,  K. B. Bravaya,  B. R. Brooks,  D. Casanova,  Jeng-Da Chai,  
 Hsing-Ta Chen,  S. Coriani,  C. J. Cramer,  A. E. DePrince, III,  
 R. A. DiStasio Jr.,  A. Dreuw,  B. D. Dunietz,  T. R. Furlani,  
 W. A. Goddard III,  S. Grimme,  S. Hammes-Schiffer,  T. Head-Gordon,  
 W. J. Hehre,  Chao-Ping Hsu,  T.-C. Jagau,  Yousung Jung,  A. Klamt,  
 Jing Kong,  D. S. Lambrecht,  Xiangyuan Li,  WanZhen Liang,  N. J. Mayhall,  
 C. W. McCurdy,  J. B. Neaton,  T. Neudecker,  C. Ochsenfeld,  
 J. A. Parkhill,  R. Peverati,  V. A. Rassolov,  Haisheng Ren,  Yihan Shao,  
 L. V. Slipchenko,  R. P. Steele,  J. E. Subotnik,  A. J. W. Thom,  
 A. Tkatchenko,  D. G. Truhlar,  T. Van Voorhis,  Fan Wang,  
 T. A. Wesolowski,  K. B. Whaley,  H. L. Woodcock III,  P. M. Zimmerman,  
 S. Faraji,  P. M. W. Gill,  M. Head-Gordon,  J. M. Herbert,  A. I. Krylov

 Contributors to earlier versions of Q-Chem not listed above: 
 R. D. Adamson,  B. Austin,  R. Baer,  J. Baker,  G. J. O. Beran,  
 K. Brandhorst,  S. T. Brown,  E. F. C. Byrd,  Arup K. Chakraborty,  
 G. K. L. Chan,  Chun-Min Chang,  Yunqing Chen,  C.-L. Cheng,  
 Siu Hung Chien,  D. M. Chipman,  D. L. Crittenden,  H. Dachsel,  
 R. J. Doerksen,  A. D. Dutoi,  R. G. Edgar,  J. Fosso-Tande,  
 L. Fusti-Molnar,  D. Ghosh,  A. Ghysels,  A. Golubeva-Zadorozhnaya,  
 J. Gonthier,  M. S. Gordon,  S. R. Gwaltney,  G. Hawkins,  J. E. Herr,  
 A. Heyden,  S. Hirata,  E. G. Hohenstein,  G. Kedziora,  F. J. Keil,  
 C. Kelley,  Jihan Kim,  R. A. King,  R. Z. Khaliullin,  P. P. Korambath,  
 W. Kurlancheek,  A. Laurent,  A. M. Lee,  M. S. Lee,  S. V. Levchenko,  
 Ching Yeh Lin,  D. Liotard,  E. Livshits,  R. C. Lochan,  I. Lotan,  
 L. A. Martinez-Martinez,  P. E. Maslen,  N. Nair,  D. P. O'Neill,  
 D. Neuhauser,  E. Neuscamman,  C. M. Oana,  R. Olivares-Amaya,  R. Olson,  
 T. M. Perrine,  B. Peters,  P. A. Pieniazek,  A. Prociuk,  Y. M. Rhee,  
 J. Ritchie,  M. A. Rohrdanz,  E. Rosta,  N. J. Russ,  H. F. Schaefer III,  
 M. W. Schmidt,  N. E. Schultz,  S. Sharma,  N. Shenvi,  C. D. Sherrill,  
 A. C. Simmonett,  A. Sodt,  T. Stein,  D. Stuck,  K. S. Thanthiriwatte,  
 V. Vanovschi,  L. Vogt,  Tao Wang,  A. Warshel,  M. A. Watson,  
 C. F. Williams,  Q. Wu,  X. Xu,  Jun Yang,  W. Zhang,  Yan Zhao

   Please cite Q-Chem as follows:
  "Software for the frontiers of quantum chemistry:
   An overview of developments in the Q-Chem 5 package"
   J. Chem. Phys. 155, 084801 (2021)
   https://doi.org/10.1063/5.0055522 (open access)

 Q-Chem 6.4.0 for Intel X86 EM64T Linux

 Parts of Q-Chem use Armadillo 12.8.2 (Cortisol Injector).
 http://arma.sourceforge.net/

 Q-Chem begins on Wed Jan 14 19:24:11 2026  

 Host: orc44
0

 Scratch files written to /scratch/bibhas/qchem12145//
 Executable: /qcsoftware/qchem_latest/exe/qcprog.exe
 Number of threads = 20
 Processing $rem in /qcsoftware/qchem_latest/config/preferences:
 Processing $rem in /home/users/bibhas/.qchemrc:

 Checking the input file for inconsistencies... 	...done.

--------------------------------------------------------------
User input:
--------------------------------------------------------------
$molecule
-1 2
  C    0.1242375   -0.5446126   -0.0000398
  C   -1.2429485    0.1168749   -0.0000468
  O    1.1232477    0.4292800    0.0000498
  H    0.2294939   -1.1798167   -0.9040506
  H    0.2294273   -1.1799249    0.9039018
  H   -1.3661511    0.7462660   -0.9068799
  H   -1.3664856    0.7456626    0.9071501
$end

$rem
   BASIS  =  cc-pVTZ
   GUI  =  2
   JOB_TYPE  =  Optimization
   METHOD  =  wB97M-V
   MEM_TOTAL  =  200000
   SCF_CONVERGENCE  =  8
$end

--------------------------------------------------------------
 ----------------------------------------------------------------
             Standard Nuclear Orientation (Angstroms)
    I     Atom           X                Y                Z
 ----------------------------------------------------------------
    1      C       0.1242374822    -0.5446126364    -0.0000397691
    2      C      -1.2429485012     0.1168748978    -0.0000468210
    3      O       1.1232477066     0.4292799385     0.0000497651
    4      H       0.2294938695    -1.1798168034    -0.9040505235
    5      H       0.2294272631    -1.1799248747     0.9039018765
    6      H      -1.3661510823     0.7462659363    -0.9068799663
    7      H      -1.3664855887     0.7456626655     0.9071500338
 ----------------------------------------------------------------
 Molecular Point Group                 C1    NOp =  1
 Largest Abelian Subgroup              C1    NOp =  1
 Nuclear Repulsion Energy =          67.34769806 hartrees
 There are       13 alpha and       12 beta electrons
 Requested basis set is cc-pVTZ
 There are 54 shells and 146 basis functions

 Total QAlloc Memory Limit 200000 MB
 Mega-Array Size       188 MB
 MEM_STATIC part       192 MB

 -----------------------------------------------------------------------
                STARTING GEOMETRY OPTIMIZER USING LIBOPT3
                by Peter F. McLaughlin, Yu Zhang, Evgeny Epifanovsky
 -----------------------------------------------------------------------

              Initial Energy and Gradient Calculation
   -- Checking Topology for Ill-Behaving Coordinates --

 -------------------------------------------
   Coordinate       |  Removed | Additions 
 -------------------------------------------
	Bonds                     0          0
	Angles                    0          0
	Torsions                  0          0
	Co-Linear Type5s          0          0
	Co-Linear Type6s          0          0
 -------------------------------------------
     Done Checking Topology
 ----------------------------------------------------------------
             Standard Nuclear Orientation (Angstroms)
    I     Atom           X                Y                Z
 ----------------------------------------------------------------
    1      C       0.1242374822    -0.5446126364    -0.0000397691
    2      C      -1.2429485012     0.1168748978    -0.0000468210
    3      O       1.1232477066     0.4292799385     0.0000497651
    4      H       0.2294938695    -1.1798168034    -0.9040505235
    5      H       0.2294272631    -1.1799248747     0.9039018765
    6      H      -1.3661510823     0.7462659363    -0.9068799663
    7      H      -1.3664855887     0.7456626655     0.9071500338
 ----------------------------------------------------------------
 Molecular Point Group                 C1    NOp =  1
 Largest Abelian Subgroup              C1    NOp =  1
 Nuclear Repulsion Energy =          67.34769806 hartrees
 There are       13 alpha and       12 beta electrons

                       Distance Matrix (Angstroms)
             C (  1)   C (  2)   O (  3)   H (  4)   H (  5)   H (  6)
   C (  2)  1.518803
   O (  3)  1.395166  2.386730
   H (  4)  1.109864  2.160259  2.050704
   H (  5)  1.109864  2.160255  2.050708  1.807952
   H (  6)  2.170250  1.110702  2.668353  2.501177  3.087882
   H (  7)  2.170267  1.110694  2.668651  3.087891  2.500967  1.814030


 Requested basis set is cc-pVTZ
 There are 54 shells and 146 basis functions
 A cutoff of  1.0D-12 yielded   1482 shell pairs
 There are     10938 function pairs (     14024 Cartesian)
 Smallest overlap matrix eigenvalue = 1.26E-03

 Scale SEOQF with 1.000000e-01/1.000000e+00/1.000000e+00

 Standard Electronic Orientation quadrupole field applied
 Nucleus-field energy     =     0.0000000025 hartrees
 Guess from superposition of atomic densities
 Warning:  Energy on first SCF cycle will be non-variational
 SAD guess density has 24.000000 electrons

 -----------------------------------------------------------------------
  General SCF calculation program by
  Eric Jon Sundstrom, Paul Horn, Yuezhi Mao, Dmitri Zuev, Alec White,
  David Stuck, Shaama M.S., Shane Yost, Joonho Lee, David Small,
  Daniel Levine, Susi Lehtola, Hugh Burton, Evgeny Epifanovsky,
  Bang C. Huynh
 -----------------------------------------------------------------------
 Exchange:     0.1500 Hartree-Fock + 1.0000 wB97M-V + LR-HF
 Correlation:  1.0000 wB97M-V
 Using SG-2 standard quadrature grid
 Nonlocal Correlation:  VV10 with C = 0.0100 and b = 6.00 and scale = 1.00000
 Grid used for NLC:  SG-1 standard quadrature
 using 20 threads for integral computing
 -------------------------------------------------------
 OpenMP Integral computing Module                
 Release: version 1.0, May 2013, Q-Chem Inc. Pittsburgh 
 -------------------------------------------------------
 A unrestricted SCF calculation will be
 performed using DIIS
 SCF converges when DIIS error is below 1.0e-08
 User-specified cutoff of 10e-12
 used for neglect of 2-electron integrals.
 A cutoff of 10e-12
 used for neglect of overlap integrals.
 Incremental Fock algorithm is on at the start.
 ---------------------------------------
  Cycle       Energy         DIIS error
 ---------------------------------------
    1    -153.9166560169      1.65e-02  
    2    -153.5663746126      3.96e-03  
    3    -153.4406143993      5.88e-03  
    4    -153.7175112827      5.72e-04  
    5    -153.7208876022      2.41e-04  
    6    -153.7216222174      6.26e-05  
    7    -153.7217759878      3.82e-05  
    8    -153.7218882023      2.96e-05  
    9    -153.7219501085      2.18e-05  
   10    -153.7219945397      1.16e-05  
   11    -153.7220045385      2.04e-06  
   12    -153.7220048681      5.48e-07  
   13    -153.7220048849      1.71e-07  
   14    -153.7220048865      4.38e-08  
   15    -153.7220048867      1.32e-08  
   16    -153.7220048867      3.74e-09  Convergence criterion met
 ---------------------------------------
 SCF time:   CPU 134.53s  wall 9.00s 
<S^2> =          0.757653275
 SCF   energy =  -153.72200489
 Total energy =  -153.72200489
 Integrated density by DFT XC:
   Number of electrons = 25
   Numerical integral  =    24.999460926155
   Relative error      =     0.0021562954 %

 --------------------------------------------------------------

                    Orbital Energies (a.u.)
 --------------------------------------------------------------

 Alpha MOs
 -- Occupied --
-19.0180 -10.1544 -10.1258  -0.8161  -0.6044  -0.4700  -0.3420  -0.2761
 -0.2434  -0.2412  -0.1216  -0.0825  -0.0745
 -- Virtual --
  0.2992   0.3194   0.3327   0.3832   0.4589   0.4789   0.5308   0.5550
  0.6093   0.6258   0.6921   0.6942   0.7111   0.7316   0.7342   0.7654
  0.7745   0.8362   0.9017   0.9263   0.9603   1.0488   1.0567   1.0700
  1.0789   1.2029   1.2703   1.2843   1.3245   1.3595   1.3659   1.3825
  1.3940   1.4018   1.4469   1.5090   1.5394   1.5630   1.5933   1.6822
  1.6852   1.7145   1.7856   1.8894   2.0300   2.0712   2.2495   2.3552
  2.3922   2.4735   2.4896   2.5944   2.6034   2.6767   2.6995   2.7884
  2.8281   2.9167   2.9729   2.9778   3.0396   3.0834   3.1686   3.1719
  3.2243   3.2604   3.2688   3.3269   3.3346   3.3525   3.4247   3.4414
  3.4453   3.4784   3.5004   3.5654   3.6001   3.6862   3.7107   3.7346
  3.7440   3.8174   3.9410   3.9701   4.0059   4.0692   4.0724   4.0957
  4.1711   4.1761   4.1990   4.2065   4.2669   4.2725   4.3718   4.4642
  4.4759   4.4952   4.5392   4.5707   4.7312   4.7606   4.8652   4.8992
  4.9799   5.0257   5.0848   5.2024   5.2063   5.2275   5.2936   5.3825
  5.4240   5.4472   5.5467   5.6079   5.6762   5.7257   5.8747   5.8983
  5.9939   6.0969   6.2416   6.3485   6.4321   6.7803   6.7871   7.2243
  7.2782   7.3714  10.1027  11.5007  12.5999

 Beta MOs
 -- Occupied --
-19.0092 -10.1546 -10.1159  -0.7995  -0.5838  -0.4607  -0.3372  -0.2560
 -0.2349  -0.2257  -0.0731  -0.0606
 -- Virtual --
  0.2153   0.3032   0.3210   0.3348   0.3862   0.4632   0.4823   0.5317
  0.5547   0.6291   0.6299   0.6953   0.7071   0.7163   0.7391   0.7424
  0.7757   0.7859   0.8415   0.9091   0.9416   0.9668   1.0515   1.0694
  1.0721   1.0905   1.2044   1.2768   1.2900   1.3276   1.3669   1.3810
  1.3877   1.3977   1.4121   1.4562   1.5260   1.5458   1.5672   1.6008
  1.6894   1.6968   1.7241   1.7986   1.9087   2.0452   2.0822   2.2649
  2.3599   2.4150   2.4975   2.5066   2.6067   2.6203   2.6961   2.7073
  2.7989   2.8477   2.9390   3.0029   3.0055   3.0636   3.1106   3.1827
  3.2083   3.2387   3.2637   3.2873   3.3434   3.3622   3.3758   3.4402
  3.4581   3.4691   3.4927   3.5256   3.5775   3.6103   3.7034   3.7206
  3.7414   3.7520   3.8221   3.9490   3.9840   4.0177   4.0751   4.0845
  4.1140   4.1818   4.1893   4.2063   4.2155   4.2756   4.2858   4.3926
  4.4659   4.4838   4.5019   4.5666   4.5950   4.7414   4.7806   4.8798
  4.9093   4.9971   5.0521   5.1031   5.2172   5.2249   5.2387   5.3183
  5.4033   5.4496   5.4643   5.5695   5.6280   5.6925   5.7518   5.8929
  5.9082   6.0532   6.1064   6.2673   6.3591   6.4430   6.8126   6.8213
  7.2615   7.2891   7.3906  10.1217  11.5298  12.6059
 --------------------------------------------------------------

          Ground-State Mulliken Net Atomic Charges

     Atom                 Charge (a.u.)    Spin (a.u.)
  --------------------------------------------------------
      1 C                     0.117088      -0.017161
      2 C                    -0.476701       0.728361
      3 O                    -0.622656       0.315259
      4 H                    -0.056901      -0.001472
      5 H                    -0.056893      -0.001465
      6 H                     0.048036      -0.011761
      7 H                     0.048029      -0.011761
  --------------------------------------------------------
  Sum of atomic charges =    -1.000000
  Sum of spin   charges =     1.000000

 -----------------------------------------------------------------
                    Cartesian Multipole Moments
 -----------------------------------------------------------------
    Charge (ESU x 10^10)
                -4.8032
    Dipole Moment (Debye)
         X      -1.1191      Y      -0.9533      Z       0.0002
       Tot       1.4701
    Quadrupole Moments (Debye-Ang)
        XX     -31.7782     XY      -2.4834     YY     -24.8397
        XZ      -0.0008     YZ      -0.0005     ZZ     -22.6357
    Octopole Moments (Debye-Ang^2)
       XXX      12.3186    XXY      -0.2093    XYY       2.2861
       YYY       2.7850    XXZ       0.0013    XYZ       0.0002
       YYZ       0.0000    XZZ       2.2782    YZZ       1.2489
       ZZZ       0.0009
    Hexadecapole Moments (Debye-Ang^3)
      XXXX    -183.5348   XXXY      -2.3629   XXYY     -39.7958
      XYYY       2.0509   YYYY     -72.3209   XXXZ      -0.0029
      XXYZ      -0.0004   XYYZ       0.0003   YYYZ      -0.0008
      XXZZ     -35.1829   XYZZ       0.0176   YYZZ     -20.0043
      XZZZ      -0.0009   YZZZ      -0.0007   ZZZZ     -44.8944
 -----------------------------------------------------------------
 Calculating analytic gradient of the SCF energy
 Gradient of SCF Energy
            1           2           3           4           5           6
    1  -0.0319780  -0.0164768   0.0312394   0.0051985   0.0052008   0.0034095
    2  -0.0099586  -0.0231175   0.0071056   0.0067857   0.0067843   0.0062059
    3   0.0000059  -0.0000087  -0.0000019  -0.0018611   0.0018627  -0.0069431
            7
    1   0.0034066
    2   0.0061946
    3   0.0069463
 Max gradient component =       3.198E-02
 RMS gradient           =       1.254E-02
 Gradient time:  CPU 17.14 s  wall 2.86 s

 *****************************************************
             Starting BFGS Algorithm
 *****************************************************
            LIBOPT3 RUN PARAMETERS

  Geometry Optimization Coordinates :
	Delocalized Natural Internal Coordinates

  Step Length Selection Method :
	Eigenvector Following Algorithm

  Step Length Limiter :
	Root-Mean-Square of Gradient

  Convergence Criteria :
	Max Gradient Component    	3.00000000e-04
	Max Displacement Component	1.20000000e-03
	Absolute Energy Difference	1.00000000e-06

  Initial Hessian :
	Approximate Hessian - Model Internal Coordinate

  Type of Verification :
	Verify with final updated Hessian
 *****************************************************

	OPTIMIZATION CYCLE:	1





 Scaling Magnitude of Eigenvalues
 	Minimum: -25.00000000	 Maximum: 25.00000000
 15 Hessian Eigenvalues to form next step
   0.00669145   0.03980561   0.07414783   0.07775178   0.16000000
   0.16000000   0.16000000   0.16000000   0.22505474   0.30482127
   0.32525839   0.32526633   0.32614396   0.32614475   0.46431120


 Minimum Search taking a RFO step
 Searching for Lambda that minimizes along all modes
	Value of Lambda   -0.00946030
	Norm  of Stepsize  0.23818779
	RMS   of Stepsize  0.06149982

	Performing Iterative Coordinate Back-Transformation

	  Starting from Previous Position

	  iter:	0	rms: 5.1748719826e-02	maxdev: 1.3890107630e-01
	  iter:	1	rms: 2.6268187546e-03	maxdev: 5.7658276436e-03
	  iter:	2	rms: 1.0217213477e-06	maxdev: 2.0582236898e-06
	  iter:	3	rms: 0.0000000000e+00	maxdev: 0.0000000000e+00	 Success!

	Finished Iterative Coordinate Back-Transformation
 ----------------------------------------------------------------
             Standard Nuclear Orientation (Angstroms)
    I     Atom           X                Y                Z
 ----------------------------------------------------------------
    1      C       0.1522432335    -0.5569189436    -0.0000497716
    2      C      -1.1855652099     0.1476780427    -0.0000172992
    3      O       1.0466815230     0.4737181278     0.0000975027
    4      H       0.2198884872    -1.2133414131    -0.8961008113
    5      H       0.2197973196    -1.2134773326     0.8959052647
    6      H      -1.3609791810     0.7482859990    -0.9008130445
    7      H      -1.3612450233     0.7477846434     0.9010627546
 ----------------------------------------------------------------
 Molecular Point Group                 C1    NOp =  1
 Largest Abelian Subgroup              C1    NOp =  1
 Nuclear Repulsion Energy =          68.50967983 hartrees
 There are       13 alpha and       12 beta electrons

                       Distance Matrix (Angstroms)
             C (  1)   C (  2)   O (  3)   H (  4)   H (  5)   H (  6)
   C (  2)  1.512015
   O (  3)  1.364636  2.255932
   H (  4)  1.112822  2.151892  2.081569
   H (  5)  1.112820  2.151852  2.081547  1.792006
   H (  6)  2.191980  1.096783  2.585316  2.519354  3.094441
   H (  7)  2.192009  1.096785  2.585529  3.094478  2.519180  1.801876


 Applying Cartesian multipole field
    Component          Value
    ---------          -----
     (2,0,0)        1.00000E-11
     (0,2,0)        2.00000E-10
     (0,0,2)       -3.00000E-10
 Nucleus-field energy     = 2.9027886400e-09 hartrees
 Requested basis set is cc-pVTZ
 There are 54 shells and 146 basis functions
 A cutoff of  1.0D-12 yielded   1484 shell pairs
 There are     10944 function pairs (     14030 Cartesian)
 Smallest overlap matrix eigenvalue = 1.23E-03
 Guess MOs from SCF MO coefficient file

 -----------------------------------------------------------------------
  General SCF calculation program by
  Eric Jon Sundstrom, Paul Horn, Yuezhi Mao, Dmitri Zuev, Alec White,
  David Stuck, Shaama M.S., Shane Yost, Joonho Lee, David Small,
  Daniel Levine, Susi Lehtola, Hugh Burton, Evgeny Epifanovsky,
  Bang C. Huynh
 -----------------------------------------------------------------------
 Exchange:     0.1500 Hartree-Fock + 1.0000 wB97M-V + LR-HF
 Correlation:  1.0000 wB97M-V
 Using SG-2 standard quadrature grid
 Nonlocal Correlation:  VV10 with C = 0.0100 and b = 6.00 and scale = 1.00000
 Grid used for NLC:  SG-1 standard quadrature
 A unrestricted SCF calculation will be
 performed using DIIS
 SCF converges when DIIS error is below 1.0e-08
 User-specified cutoff of 10e-12
 used for neglect of 2-electron integrals.
 A cutoff of 10e-12
 used for neglect of overlap integrals.
 Incremental Fock algorithm is on at the start.
 ---------------------------------------
  Cycle       Energy         DIIS error
 ---------------------------------------
    1    -153.7225819126      5.68e-04  
    2    -153.7270033545      1.50e-04  
    3    -153.7272802035      1.59e-04  
    4    -153.7274831718      3.15e-05  
    5    -153.7275042155      8.18e-06  
    6    -153.7275067120      4.37e-06  
    7    -153.7275074058      2.12e-06  
    8    -153.7275076956      1.18e-06  
    9    -153.7275078030      6.44e-07  
   10    -153.7275078438      2.82e-07  
   11    -153.7275078529      1.03e-07  
   12    -153.7275078536      3.34e-08  
   13    -153.7275078537      6.75e-09  Convergence criterion met
 ---------------------------------------
 SCF time:   CPU 114.80s  wall 7.00s 
<S^2> =          0.756067364
 SCF   energy =  -153.72750785
 Total energy =  -153.72750785
 Integrated density by DFT XC:
   Number of electrons = 25
   Numerical integral  =    24.999503624402
   Relative error      =     0.0019855024 %

 --------------------------------------------------------------

                    Orbital Energies (a.u.)
 --------------------------------------------------------------

 Alpha MOs
 -- Occupied --
-19.0165 -10.1535 -10.1156  -0.8293  -0.5972  -0.4727  -0.3416  -0.2850
 -0.2430  -0.2399  -0.1241  -0.0842  -0.0554
 -- Virtual --
  0.3008   0.3185   0.3342   0.3865   0.4522   0.4936   0.5265   0.5670
  0.6098   0.6303   0.6921   0.6932   0.7180   0.7297   0.7431   0.7743
  0.7904   0.8421   0.9035   0.9432   0.9552   1.0448   1.0632   1.0792
  1.0872   1.2111   1.2784   1.2923   1.3404   1.3471   1.3609   1.3871
  1.3916   1.4091   1.4556   1.5335   1.5458   1.5531   1.5544   1.6882
  1.7043   1.7255   1.7919   1.9400   2.0709   2.0836   2.2581   2.3657
  2.3874   2.4641   2.4953   2.5974   2.6089   2.6997   2.7120   2.7704
  2.8152   2.9180   2.9766   3.0051   3.0708   3.0962   3.1698   3.2044
  3.2340   3.2527   3.2765   3.3360   3.3404   3.3655   3.4129   3.4432
  3.4613   3.5107   3.5108   3.5707   3.6247   3.6893   3.7148   3.7620
  3.7724   3.8209   3.9302   3.9563   4.0157   4.0304   4.0686   4.1342
  4.1781   4.1857   4.2047   4.2444   4.2737   4.2791   4.4051   4.4698
  4.4755   4.5196   4.5615   4.5913   4.7309   4.7918   4.8863   4.9055
  5.0282   5.0358   5.1361   5.2132   5.2299   5.2571   5.2755   5.3938
  5.4441   5.4760   5.5905   5.6248   5.6514   5.7314   5.8810   5.9325
  6.0334   6.1541   6.3066   6.4355   6.4586   6.7997   6.8070   7.2486
  7.2903   7.3718  10.4083  11.7368  12.8019

 Beta MOs
 -- Occupied --
-19.0078 -10.1536 -10.1055  -0.8130  -0.5764  -0.4635  -0.3366  -0.2632
 -0.2335  -0.2299  -0.0751  -0.0649
 -- Virtual --
  0.2357   0.3045   0.3203   0.3363   0.3888   0.4561   0.4958   0.5272
  0.5666   0.6318   0.6337   0.6949   0.7059   0.7205   0.7373   0.7540
  0.7843   0.7973   0.8484   0.9132   0.9477   0.9737   1.0476   1.0648
  1.0892   1.1017   1.2128   1.2840   1.2995   1.3424   1.3513   1.3719
  1.3921   1.3964   1.4239   1.4643   1.5412   1.5478   1.5614   1.5694
  1.6977   1.7118   1.7381   1.8063   1.9633   2.0844   2.0938   2.2703
  2.3699   2.4081   2.4749   2.5330   2.6029   2.6245   2.7194   2.7248
  2.7832   2.8364   2.9422   3.0091   3.0210   3.1066   3.1199   3.1807
  3.2439   3.2476   3.2617   3.2932   3.3459   3.3611   3.3916   3.4390
  3.4655   3.4750   3.5239   3.5333   3.5889   3.6345   3.7108   3.7217
  3.7682   3.7768   3.8282   3.9357   3.9686   4.0275   4.0416   4.0809
  4.1478   4.1856   4.1973   4.2124   4.2563   4.2824   4.2983   4.4254
  4.4714   4.4813   4.5263   4.5863   4.6145   4.7408   4.8149   4.8999
  4.9152   5.0428   5.0614   5.1444   5.2444   5.2449   5.2701   5.3027
  5.4109   5.4541   5.5171   5.6143   5.6443   5.6678   5.7564   5.8938
  5.9494   6.0914   6.1610   6.3315   6.4461   6.4703   6.8303   6.8390
  7.2836   7.3005   7.3900  10.4268  11.7656  12.8089
 --------------------------------------------------------------

          Ground-State Mulliken Net Atomic Charges

     Atom                 Charge (a.u.)    Spin (a.u.)
  --------------------------------------------------------
      1 C                     0.138183      -0.012937
      2 C                    -0.486866       0.744652
      3 O                    -0.606979       0.294353
      4 H                    -0.073329      -0.000471
      5 H                    -0.073324      -0.000466
      6 H                     0.051161      -0.012565
      7 H                     0.051154      -0.012566
  --------------------------------------------------------
  Sum of atomic charges =    -1.000000
  Sum of spin   charges =     1.000000

 -----------------------------------------------------------------
                    Cartesian Multipole Moments
 -----------------------------------------------------------------
    Charge (ESU x 10^10)
                -4.8032
    Dipole Moment (Debye)
         X      -0.9253      Y      -1.0114      Z      -0.0001
       Tot       1.3708
    Quadrupole Moments (Debye-Ang)
        XX     -31.0767     XY      -2.4960     YY     -24.9676
        XZ      -0.0009     YZ      -0.0005     ZZ     -22.6284
    Octopole Moments (Debye-Ang^2)
       XXX      12.4346    XXY      -0.2720    XYY       2.0116
       YYY       2.1677    XXZ       0.0005    XYZ       0.0001
       YYZ      -0.0005    XZZ       2.1397    YZZ       1.2303
       ZZZ      -0.0002
    Hexadecapole Moments (Debye-Ang^3)
      XXXX    -169.8898   XXXY      -1.9302   XXYY     -38.1371
      XYYY       2.6639   YYYY     -75.8777   XXXZ      -0.0029
      XXYZ      -0.0007   XYYZ       0.0002   YYYZ      -0.0015
      XXZZ     -32.9636   XYZZ       0.1985   YYZZ     -20.7636
      XZZZ      -0.0011   YZZZ      -0.0017   ZZZZ     -44.6786
 -----------------------------------------------------------------
 Calculating analytic gradient of the SCF energy
 Gradient of SCF Energy
            1           2           3           4           5           6
    1  -0.0079054   0.0010833   0.0063457   0.0002118   0.0002124   0.0000276
    2  -0.0143578  -0.0072399   0.0073835   0.0038775   0.0038814   0.0032289
    3  -0.0000041  -0.0000016   0.0000015  -0.0001522   0.0001534  -0.0015976
            7
    1   0.0000246
    2   0.0032264
    3   0.0016006
 Max gradient component =       1.436E-02
 RMS gradient           =       4.747E-03
 Gradient time:  CPU 16.93 s  wall 1.08 s

     Step 1	:
        Energy is -153.7275078537
                            Maximum         Tolerance       Converged?
         Gradient           8.29385296e-03	3.00000000e-04	false
         Displacement       1.32236250e-01	1.20000000e-03	false
         Energy change      5.50296701e-03	1.00000000e-06	false


	OPTIMIZATION CYCLE:	2





 Scaling Magnitude of Eigenvalues
 	Minimum: -25.00000000	 Maximum: 25.00000000
 15 Hessian Eigenvalues to form next step
   0.00669145   0.03831372   0.07311482   0.07414783   0.15941327
   0.16000000   0.16000000   0.16454894   0.24383002   0.30695050
   0.31702584   0.32526237   0.32614436   0.32807816   0.42892509


 Minimum Search taking a RFO step
 Searching for Lambda that minimizes along all modes
	Value of Lambda   -0.00085101
	Norm  of Stepsize  0.10375695
	RMS   of Stepsize  0.02678993

	Performing Iterative Coordinate Back-Transformation

	  Starting from Previous Position

	  iter:	0	rms: 1.4842388089e-02	maxdev: 3.3044154929e-02
	  iter:	1	rms: 3.1635872289e-04	maxdev: 5.7039733137e-04
	  iter:	2	rms: 2.8026867465e-08	maxdev: 5.5223564078e-08	 Success!

	Finished Iterative Coordinate Back-Transformation
 ----------------------------------------------------------------
             Standard Nuclear Orientation (Angstroms)
    I     Atom           X                Y                Z
 ----------------------------------------------------------------
    1      C       0.1610095527    -0.5447214736    -0.0000362343
    2      C      -1.1766620708     0.1651423671     0.0000022558
    3      O       1.0515416855     0.4699145688     0.0001452346
    4      H       0.2194385025    -1.2223743554    -0.8860978183
    5      H       0.2193370853    -1.2225975520     0.8858620555
    6      H      -1.3718374888     0.7443693881    -0.9027469734
    7      H      -1.3720061172     0.7439961804     0.9029560755
 ----------------------------------------------------------------
 Molecular Point Group                 C1    NOp =  1
 Largest Abelian Subgroup              C1    NOp =  1
 Nuclear Repulsion Energy =          68.70184532 hartrees
 There are       13 alpha and       12 beta electrons

                       Distance Matrix (Angstroms)
             C (  1)   C (  2)   O (  3)   H (  4)   H (  5)   H (  6)
   C (  2)  1.514355
   O (  3)  1.350013  2.248950
   H (  4)  1.117019  2.158581  2.083666
   H (  5)  1.117020  2.158560  2.083664  1.771960
   H (  6)  2.196876  1.090208  2.600636  2.529924  3.098373
   H (  7)  2.196890  1.090209  2.600725  3.098390  2.529853  1.805703


 Applying Cartesian multipole field
    Component          Value
    ---------          -----
     (2,0,0)        1.00000E-11
     (0,2,0)        2.00000E-10
     (0,0,2)       -3.00000E-10
 Nucleus-field energy     = 2.9034453147e-09 hartrees
 Requested basis set is cc-pVTZ
 There are 54 shells and 146 basis functions
 A cutoff of  1.0D-12 yielded   1484 shell pairs
 There are     10944 function pairs (     14030 Cartesian)
 Smallest overlap matrix eigenvalue = 1.23E-03
 Guess MOs from SCF MO coefficient file

 -----------------------------------------------------------------------
  General SCF calculation program by
  Eric Jon Sundstrom, Paul Horn, Yuezhi Mao, Dmitri Zuev, Alec White,
  David Stuck, Shaama M.S., Shane Yost, Joonho Lee, David Small,
  Daniel Levine, Susi Lehtola, Hugh Burton, Evgeny Epifanovsky,
  Bang C. Huynh
 -----------------------------------------------------------------------
 Exchange:     0.1500 Hartree-Fock + 1.0000 wB97M-V + LR-HF
 Correlation:  1.0000 wB97M-V
 Using SG-2 standard quadrature grid
 Nonlocal Correlation:  VV10 with C = 0.0100 and b = 6.00 and scale = 1.00000
 Grid used for NLC:  SG-1 standard quadrature
 A unrestricted SCF calculation will be
 performed using DIIS
 SCF converges when DIIS error is below 1.0e-08
 User-specified cutoff of 10e-12
 used for neglect of 2-electron integrals.
 A cutoff of 10e-12
 used for neglect of overlap integrals.
 Incremental Fock algorithm is on at the start.
 ---------------------------------------
  Cycle       Energy         DIIS error
 ---------------------------------------
    1    -153.7276006946      1.94e-04  
    2    -153.7279366908      9.73e-05  
    3    -153.7279745580      7.78e-05  
    4    -153.7280252746      1.28e-05  
    5    -153.7280288979      5.73e-06  
    6    -153.7280306206      3.68e-06  
    7    -153.7280314752      2.14e-06  
    8    -153.7280319294      1.08e-06  
    9    -153.7280320265      4.76e-07  
   10    -153.7280320433      1.16e-07  
   11    -153.7280320444      4.20e-08  
   12    -153.7280320445      8.84e-09  Convergence criterion met
 ---------------------------------------
 SCF time:   CPU 104.19s  wall 6.00s 
<S^2> =          0.755823765
 SCF   energy =  -153.72803204
 Total energy =  -153.72803204
 Integrated density by DFT XC:
   Number of electrons = 25
   Numerical integral  =    24.999470827690
   Relative error      =     0.0021166892 %

 --------------------------------------------------------------

                    Orbital Energies (a.u.)
 --------------------------------------------------------------

 Alpha MOs
 -- Occupied --
-19.0149 -10.1533 -10.1155  -0.8337  -0.5971  -0.4730  -0.3411  -0.2882
 -0.2441  -0.2418  -0.1231  -0.0825  -0.0542
 -- Virtual --
  0.3006   0.3179   0.3346   0.3873   0.4531   0.4971   0.5278   0.5707
  0.6104   0.6280   0.6904   0.6920   0.7188   0.7292   0.7418   0.7756
  0.7967   0.8424   0.9040   0.9381   0.9598   1.0447   1.0614   1.0827
  1.0930   1.2093   1.2802   1.2857   1.3444   1.3472   1.3609   1.3860
  1.3897   1.4084   1.4582   1.5345   1.5472   1.5531   1.5598   1.6903
  1.7056   1.7315   1.8001   1.9410   2.0818   2.0827   2.2721   2.3710
  2.3887   2.4580   2.4932   2.5926   2.6030   2.6965   2.7120   2.7716
  2.8107   2.9153   2.9762   3.0048   3.0809   3.0985   3.1627   3.2093
  3.2400   3.2494   3.2668   3.3354   3.3435   3.3721   3.4062   3.4503
  3.4710   3.5101   3.5108   3.5767   3.6351   3.6765   3.7157   3.7713
  3.7806   3.8244   3.9056   3.9596   4.0141   4.0358   4.0662   4.1385
  4.1765   4.1801   4.2055   4.2512   4.2733   4.2844   4.4058   4.4702
  4.4724   4.5348   4.5806   4.5911   4.7242   4.8010   4.8949   4.8967
  5.0362   5.0394   5.1383   5.2278   5.2353   5.2664   5.2709   5.4001
  5.4441   5.4922   5.6104   5.6275   5.6471   5.7237   5.8872   5.9504
  6.0290   6.1759   6.3468   6.4453   6.4969   6.8023   6.8175   7.2629
  7.2954   7.3717  10.4704  11.8361  12.8164

 Beta MOs
 -- Occupied --
-19.0066 -10.1535 -10.1052  -0.8180  -0.5759  -0.4639  -0.3355  -0.2665
 -0.2357  -0.2318  -0.0740  -0.0652
 -- Virtual --
  0.2371   0.3044   0.3197   0.3368   0.3892   0.4569   0.4988   0.5287
  0.5702   0.6313   0.6331   0.6949   0.7037   0.7212   0.7364   0.7534
  0.7859   0.8027   0.8488   0.9148   0.9439   0.9769   1.0473   1.0630
  1.0920   1.1081   1.2112   1.2858   1.2930   1.3461   1.3533   1.3702
  1.3913   1.3947   1.4241   1.4662   1.5408   1.5489   1.5604   1.5773
  1.7004   1.7114   1.7453   1.8153   1.9638   2.0928   2.0947   2.2844
  2.3751   2.4090   2.4698   2.5321   2.6033   2.6139   2.7196   2.7204
  2.7856   2.8333   2.9404   3.0102   3.0199   3.1189   3.1218   3.1726
  3.2471   3.2511   3.2662   3.2842   3.3470   3.3666   3.3945   3.4341
  3.4747   3.4819   3.5264   3.5310   3.5937   3.6449   3.6981   3.7220
  3.7774   3.7853   3.8323   3.9119   3.9711   4.0266   4.0465   4.0798
  4.1514   4.1866   4.1905   4.2136   4.2627   4.2814   4.3039   4.4255
  4.4743   4.4768   4.5412   4.6040   4.6142   4.7342   4.8246   4.9026
  4.9106   5.0510   5.0655   5.1440   5.2511   5.2643   5.2834   5.2955
  5.4178   5.4537   5.5361   5.6338   5.6461   5.6647   5.7492   5.9006
  5.9663   6.0865   6.1830   6.3707   6.4554   6.5086   6.8316   6.8477
  7.2960   7.3049   7.3889  10.4877  11.8649  12.8243
 --------------------------------------------------------------

          Ground-State Mulliken Net Atomic Charges

     Atom                 Charge (a.u.)    Spin (a.u.)
  --------------------------------------------------------
      1 C                     0.148575      -0.014568
      2 C                    -0.483373       0.763310
      3 O                    -0.604251       0.278105
      4 H                    -0.083437      -0.000309
      5 H                    -0.083437      -0.000307
      6 H                     0.052962      -0.013115
      7 H                     0.052960      -0.013116
  --------------------------------------------------------
  Sum of atomic charges =    -1.000000
  Sum of spin   charges =     1.000000

 -----------------------------------------------------------------
                    Cartesian Multipole Moments
 -----------------------------------------------------------------
    Charge (ESU x 10^10)
                -4.8032
    Dipole Moment (Debye)
         X      -1.0477      Y      -0.9580      Z      -0.0003
       Tot       1.4196
    Quadrupole Moments (Debye-Ang)
        XX     -30.9087     XY      -2.4455     YY     -25.0482
        XZ      -0.0009     YZ      -0.0005     ZZ     -22.6760
    Octopole Moments (Debye-Ang^2)
       XXX      11.3900    XXY      -0.4527    XYY       1.8372
       YYY       2.0066    XXZ      -0.0005    XYZ      -0.0001
       YYZ      -0.0010    XZZ       1.8740    YZZ       1.3570
       ZZZ      -0.0015
    Hexadecapole Moments (Debye-Ang^3)
      XXXX    -168.6576   XXXY      -1.3619   XXYY     -38.0394
      XYYY       3.2293   YYYY     -76.2212   XXXZ      -0.0031
      XXYZ      -0.0008   XYYZ      -0.0001   YYYZ      -0.0016
      XXZZ     -32.7109   XYZZ       0.3583   YYZZ     -20.9977
      XZZZ      -0.0018   YZZZ      -0.0022   ZZZZ     -44.7645
 -----------------------------------------------------------------
 Calculating analytic gradient of the SCF energy
 Gradient of SCF Energy
            1           2           3           4           5           6
    1  -0.0016758   0.0006785   0.0002414   0.0002451   0.0002445   0.0001337
    2  -0.0056156  -0.0004029   0.0019148   0.0014880   0.0014891   0.0005632
    3  -0.0000023   0.0000002  -0.0000000   0.0011782  -0.0011770   0.0006411
            7
    1   0.0001326
    2   0.0005634
    3  -0.0006400
 Max gradient component =       5.616E-03
 RMS gradient           =       1.504E-03
 Gradient time:  CPU 16.90 s  wall 1.21 s

     Step 2	:
        Energy is -153.7280320445
                            Maximum         Tolerance       Converged?
         Gradient           2.04721238e-03	3.00000000e-04	false
         Displacement       7.21149168e-02	1.20000000e-03	false
         Energy change      5.24190851e-04	1.00000000e-06	false


	OPTIMIZATION CYCLE:	3





 Scaling Magnitude of Eigenvalues
 	Minimum: -25.00000000	 Maximum: 25.00000000
 15 Hessian Eigenvalues to form next step
   0.00669145   0.03178398   0.06657004   0.07414783   0.15999999
   0.16000000   0.16099390   0.16787525   0.25701755   0.29395813
   0.30720118   0.32526236   0.32614436   0.33938125   0.42563741


 Minimum Search taking a RFO step
 Searching for Lambda that minimizes along all modes
	Value of Lambda   -0.00014551
	Norm  of Stepsize  0.05230668
	RMS   of Stepsize  0.01350553

	Performing Iterative Coordinate Back-Transformation

	  Starting from Previous Position

	  iter:	0	rms: 1.0242501233e-02	maxdev: 2.6619970043e-02
	  iter:	1	rms: 1.0523517164e-04	maxdev: 1.8654357495e-04
	  iter:	2	rms: 0.0000000000e+00	maxdev: 0.0000000000e+00	 Success!

	Finished Iterative Coordinate Back-Transformation
 ----------------------------------------------------------------
             Standard Nuclear Orientation (Angstroms)
    I     Atom           X                Y                Z
 ----------------------------------------------------------------
    1      C       0.1666057361    -0.5362454401    -0.0000281567
    2      C      -1.1732452584     0.1719652059     0.0000105361
    3      O       1.0655295786     0.4649781094     0.0001762053
    4      H       0.2162088275    -1.2231958134    -0.8848805356
    5      H       0.2161081872    -1.2234653055     0.8846215731
    6      H      -1.3801363557     0.7399976503    -0.9067411476
    7      H      -1.3802495662     0.7396947169     0.9069261207
 ----------------------------------------------------------------
 Molecular Point Group                 C1    NOp =  1
 Largest Abelian Subgroup              C1    NOp =  1
 Nuclear Repulsion Energy =          68.65043166 hartrees
 There are       13 alpha and       12 beta electrons

                       Distance Matrix (Angstroms)
             C (  1)   C (  2)   O (  3)   H (  4)   H (  5)   H (  6)
   C (  2)  1.515508
   O (  3)  1.345553  2.257868
   H (  4)  1.121305  2.158724  2.086768
   H (  5)  1.121306  2.158719  2.086768  1.769502
   H (  6)  2.200758  1.089800  2.622864  2.530400  3.100349
   H (  7)  2.200761  1.089800  2.622880  3.100353  2.530386  1.813667


 Applying Cartesian multipole field
    Component          Value
    ---------          -----
     (2,0,0)        1.00000E-11
     (0,2,0)        2.00000E-10
     (0,0,2)       -3.00000E-10
 Nucleus-field energy     = 2.8393069669e-09 hartrees
 Requested basis set is cc-pVTZ
 There are 54 shells and 146 basis functions
 A cutoff of  1.0D-12 yielded   1484 shell pairs
 There are     10944 function pairs (     14030 Cartesian)
 Smallest overlap matrix eigenvalue = 1.24E-03
 Guess MOs from SCF MO coefficient file

 -----------------------------------------------------------------------
  General SCF calculation program by
  Eric Jon Sundstrom, Paul Horn, Yuezhi Mao, Dmitri Zuev, Alec White,
  David Stuck, Shaama M.S., Shane Yost, Joonho Lee, David Small,
  Daniel Levine, Susi Lehtola, Hugh Burton, Evgeny Epifanovsky,
  Bang C. Huynh
 -----------------------------------------------------------------------
 Exchange:     0.1500 Hartree-Fock + 1.0000 wB97M-V + LR-HF
 Correlation:  1.0000 wB97M-V
 Using SG-2 standard quadrature grid
 Nonlocal Correlation:  VV10 with C = 0.0100 and b = 6.00 and scale = 1.00000
 Grid used for NLC:  SG-1 standard quadrature
 A unrestricted SCF calculation will be
 performed using DIIS
 SCF converges when DIIS error is below 1.0e-08
 User-specified cutoff of 10e-12
 used for neglect of 2-electron integrals.
 A cutoff of 10e-12
 used for neglect of overlap integrals.
 Incremental Fock algorithm is on at the start.
 ---------------------------------------
  Cycle       Energy         DIIS error
 ---------------------------------------
    1    -153.7279463929      1.13e-04  
    2    -153.7280789690      5.39e-05  
    3    -153.7280911436      4.73e-05  
    4    -153.7281108478      7.68e-06  
    5    -153.7281127540      4.05e-06  
    6    -153.7281137416      3.00e-06  
    7    -153.7281143402      1.62e-06  
    8    -153.7281146464      7.16e-07  
    9    -153.7281146938      2.94e-07  
   10    -153.7281146987      8.49e-08  
   11    -153.7281146991      2.14e-08  
   12    -153.7281146991      5.02e-09  Convergence criterion met
 ---------------------------------------
 SCF time:   CPU 103.74s  wall 6.00s 
<S^2> =          0.755797014
 SCF   energy =  -153.72811470
 Total energy =  -153.72811470
 Integrated density by DFT XC:
   Number of electrons = 25
   Numerical integral  =    24.999455615207
   Relative error      =     0.0021775392 %

 --------------------------------------------------------------

                    Orbital Energies (a.u.)
 --------------------------------------------------------------

 Alpha MOs
 -- Occupied --
-19.0139 -10.1539 -10.1171  -0.8341  -0.5981  -0.4723  -0.3411  -0.2887
 -0.2447  -0.2428  -0.1219  -0.0813  -0.0555
 -- Virtual --
  0.3001   0.3177   0.3340   0.3873   0.4542   0.4973   0.5285   0.5726
  0.6106   0.6262   0.6869   0.6913   0.7183   0.7279   0.7399   0.7745
  0.7987   0.8416   0.9030   0.9375   0.9601   1.0450   1.0614   1.0827
  1.0950   1.2055   1.2789   1.2794   1.3436   1.3496   1.3606   1.3866
  1.3893   1.4057   1.4592   1.5332   1.5468   1.5522   1.5625   1.6885
  1.7024   1.7330   1.8022   1.9379   2.0815   2.0857   2.2784   2.3730
  2.3884   2.4572   2.4906   2.5840   2.6038   2.6912   2.7159   2.7737
  2.8078   2.9135   2.9735   3.0039   3.0821   3.0963   3.1571   3.2098
  3.2419   3.2463   3.2599   3.3332   3.3439   3.3739   3.4011   3.4523
  3.4742   3.5064   3.5087   3.5790   3.6348   3.6651   3.7139   3.7724
  3.7781   3.8257   3.8965   3.9624   4.0050   4.0441   4.0605   4.1374
  4.1698   4.1768   4.2040   4.2507   4.2692   4.2810   4.4026   4.4624
  4.4702   4.5377   4.5847   4.5861   4.7170   4.8016   4.8870   4.8939
  5.0300   5.0333   5.1335   5.2265   5.2292   5.2600   5.2686   5.3996
  5.4363   5.4911   5.6181   5.6262   5.6447   5.7188   5.8887   5.9540
  6.0208   6.1776   6.3606   6.4475   6.5088   6.8013   6.8214   7.2674
  7.2971   7.3713  10.4699  11.8412  12.7905

 Beta MOs
 -- Occupied --
-19.0058 -10.1541 -10.1068  -0.8190  -0.5766  -0.4631  -0.3353  -0.2673
 -0.2369  -0.2325  -0.0731  -0.0648
 -- Virtual --
  0.2359   0.3040   0.3194   0.3363   0.3891   0.4581   0.4989   0.5295
  0.5721   0.6295   0.6336   0.6943   0.7009   0.7205   0.7350   0.7519
  0.7848   0.8048   0.8480   0.9145   0.9440   0.9762   1.0476   1.0630
  1.0922   1.1098   1.2075   1.2844   1.2865   1.3452   1.3560   1.3702
  1.3921   1.3943   1.4216   1.4671   1.5391   1.5485   1.5594   1.5802
  1.6989   1.7078   1.7471   1.8175   1.9600   2.0913   2.0984   2.2909
  2.3771   2.4093   2.4696   2.5301   2.6008   2.6100   2.7135   2.7236
  2.7881   2.8312   2.9393   3.0085   3.0189   3.1195   3.1213   3.1668
  3.2459   3.2529   3.2670   3.2774   3.3455   3.3703   3.3938   3.4295
  3.4777   3.4847   3.5247   3.5267   3.5952   3.6446   3.6868   3.7200
  3.7785   3.7828   3.8341   3.9032   3.9733   4.0185   4.0537   4.0753
  4.1497   4.1830   4.1854   4.2125   4.2623   4.2767   4.2996   4.4220
  4.4694   4.4721   4.5441   4.6062   4.6108   4.7271   4.8258   4.8939
  4.9079   5.0446   5.0596   5.1390   5.2451   5.2677   5.2812   5.2870
  5.4177   5.4455   5.5364   5.6402   5.6443   5.6640   5.7448   5.9027
  5.9694   6.0786   6.1842   6.3838   6.4574   6.5204   6.8296   6.8504
  7.2993   7.3063   7.3879  10.4865  11.8704  12.7989
 --------------------------------------------------------------

          Ground-State Mulliken Net Atomic Charges

     Atom                 Charge (a.u.)    Spin (a.u.)
  --------------------------------------------------------
      1 C                     0.153717      -0.016152
      2 C                    -0.476596       0.776575
      3 O                    -0.605590       0.267698
      4 H                    -0.088606      -0.000402
      5 H                    -0.088606      -0.000402
      6 H                     0.052840      -0.013659
      7 H                     0.052841      -0.013659
  --------------------------------------------------------
  Sum of atomic charges =    -1.000000
  Sum of spin   charges =     1.000000

 -----------------------------------------------------------------
                    Cartesian Multipole Moments
 -----------------------------------------------------------------
    Charge (ESU x 10^10)
                -4.8032
    Dipole Moment (Debye)
         X      -1.1811      Y      -0.9247      Z      -0.0004
       Tot       1.5000
    Quadrupole Moments (Debye-Ang)
        XX     -30.8740     XY      -2.4112     YY     -25.1132
        XZ      -0.0009     YZ      -0.0006     ZZ     -22.7097
    Octopole Moments (Debye-Ang^2)
       XXX      10.4114    XXY      -0.5799    XYY       1.6901
       YYY       1.9776    XXZ      -0.0011    XYZ      -0.0002
       YYZ      -0.0012    XZZ       1.6583    YZZ       1.4273
       ZZZ      -0.0023
    Hexadecapole Moments (Debye-Ang^3)
      XXXX    -169.0893   XXXY      -1.1395   XXYY     -38.1626
      XYYY       3.4486   YYYY     -76.2154   XXXZ      -0.0035
      XXYZ      -0.0010   XYYZ      -0.0004   YYYZ      -0.0017
      XXZZ     -32.7904   XYZZ       0.4112   YYZZ     -21.1113
      XZZZ      -0.0024   YZZZ      -0.0025   ZZZZ     -45.0122
 -----------------------------------------------------------------
 Calculating analytic gradient of the SCF energy
 Gradient of SCF Energy
            1           2           3           4           5           6
    1   0.0000135  -0.0002343  -0.0001177   0.0000034   0.0000032   0.0001661
    2  -0.0007467   0.0003478   0.0004035   0.0000576   0.0000579  -0.0000601
    3  -0.0000010   0.0000005  -0.0000000   0.0005086  -0.0005080   0.0002039
            7
    1   0.0001659
    2  -0.0000600
    3  -0.0002040
 Max gradient component =       7.467E-04
 RMS gradient           =       2.742E-04
 Gradient time:  CPU 16.93 s  wall 1.21 s

     Step 3	:
        Energy is -153.7281146991
                            Maximum         Tolerance       Converged?
         Gradient           6.62729697e-04	3.00000000e-04	false
         Displacement       3.25846537e-02	1.20000000e-03	false
         Energy change      8.26545800e-05	1.00000000e-06	false


	OPTIMIZATION CYCLE:	4





 Scaling Magnitude of Eigenvalues
 	Minimum: -25.00000000	 Maximum: 25.00000000
 15 Hessian Eigenvalues to form next step
   0.00669144   0.02918904   0.07113900   0.07414784   0.15999998
   0.16000000   0.16199460   0.16732075   0.23668910   0.28609603
   0.30739628   0.32526236   0.32614436   0.33067504   0.42603031


 Minimum Search taking a RFO step
 Searching for Lambda that minimizes along all modes
	Value of Lambda   -0.00000848
	Norm  of Stepsize  0.01076806
	RMS   of Stepsize  0.00278030

	Performing Iterative Coordinate Back-Transformation

	  Starting from Previous Position

	  iter:	0	rms: 2.9363850332e-03	maxdev: 7.8797475178e-03
	  iter:	1	rms: 6.4158674880e-06	maxdev: 1.2598608138e-05
	  iter:	2	rms: 0.0000000000e+00	maxdev: 0.0000000000e+00	 Success!

	Finished Iterative Coordinate Back-Transformation
 ----------------------------------------------------------------
             Standard Nuclear Orientation (Angstroms)
    I     Atom           X                Y                Z
 ----------------------------------------------------------------
    1      C       0.1677607935    -0.5349994602    -0.0000257389
    2      C      -1.1721896408     0.1730745349     0.0000116007
    3      O       1.0696926941     0.4624782021     0.0001821305
    4      H       0.2156015499    -1.2222131253    -0.8861162421
    5      H       0.2155024776    -1.2224930346     0.8858531076
    6      H      -1.3827221614     0.7390856290    -0.9075132096
    7      H      -1.3828245637     0.7387963777     0.9076929471
 ----------------------------------------------------------------
 Molecular Point Group                 C1    NOp =  1
 Largest Abelian Subgroup              C1    NOp =  1
 Nuclear Repulsion Energy =          68.63120868 hartrees
 There are       13 alpha and       12 beta electrons

                       Distance Matrix (Angstroms)
             C (  1)   C (  2)   O (  3)   H (  4)   H (  5)   H (  6)
   C (  2)  1.515532
   O (  3)  1.344784  2.260485
   H (  4)  1.122367  2.158243  2.086428
   H (  5)  1.122367  2.158243  2.086428  1.771969
   H (  6)  2.202459  1.090089  2.629593  2.530176  3.101334
   H (  7)  2.202459  1.090089  2.629595  3.101335  2.530174  1.815206


 Applying Cartesian multipole field
    Component          Value
    ---------          -----
     (2,0,0)        1.00000E-11
     (0,2,0)        2.00000E-10
     (0,0,2)       -3.00000E-10
 Nucleus-field energy     = 2.8115635334e-09 hartrees
 Requested basis set is cc-pVTZ
 There are 54 shells and 146 basis functions
 A cutoff of  1.0D-12 yielded   1484 shell pairs
 There are     10944 function pairs (     14030 Cartesian)
 Smallest overlap matrix eigenvalue = 1.24E-03
 Guess MOs from SCF MO coefficient file

 -----------------------------------------------------------------------
  General SCF calculation program by
  Eric Jon Sundstrom, Paul Horn, Yuezhi Mao, Dmitri Zuev, Alec White,
  David Stuck, Shaama M.S., Shane Yost, Joonho Lee, David Small,
  Daniel Levine, Susi Lehtola, Hugh Burton, Evgeny Epifanovsky,
  Bang C. Huynh
 -----------------------------------------------------------------------
 Exchange:     0.1500 Hartree-Fock + 1.0000 wB97M-V + LR-HF
 Correlation:  1.0000 wB97M-V
 Using SG-2 standard quadrature grid
 Nonlocal Correlation:  VV10 with C = 0.0100 and b = 6.00 and scale = 1.00000
 Grid used for NLC:  SG-1 standard quadrature
 A unrestricted SCF calculation will be
 performed using DIIS
 SCF converges when DIIS error is below 1.0e-08
 User-specified cutoff of 10e-12
 used for neglect of 2-electron integrals.
 A cutoff of 10e-12
 used for neglect of overlap integrals.
 Incremental Fock algorithm is on at the start.
 ---------------------------------------
  Cycle       Energy         DIIS error
 ---------------------------------------
    1    -153.7281088760      2.74e-05  
    2    -153.7281181168      7.48e-06  
    3    -153.7281187471      7.88e-06  
    4    -153.7281193019      1.87e-06  
    5    -153.7281194143      8.05e-07  
    6    -153.7281194547      6.25e-07  
    7    -153.7281194793      3.46e-07  
    8    -153.7281194931      1.76e-07  
    9    -153.7281194962      5.02e-08  
   10    -153.7281194964      1.79e-08  
   11    -153.7281194964      5.53e-09  Convergence criterion met
 ---------------------------------------
 SCF time:   CPU 95.42s  wall 6.00s 
<S^2> =          0.755803104
 SCF   energy =  -153.72811950
 Total energy =  -153.72811950
 Integrated density by DFT XC:
   Number of electrons = 25
   Numerical integral  =    24.999454351387
   Relative error      =     0.0021825945 %

 --------------------------------------------------------------

                    Orbital Energies (a.u.)
 --------------------------------------------------------------

 Alpha MOs
 -- Occupied --
-19.0135 -10.1541 -10.1176  -0.8341  -0.5984  -0.4719  -0.3412  -0.2888
 -0.2448  -0.2431  -0.1215  -0.0810  -0.0559
 -- Virtual --
  0.3000   0.3176   0.3337   0.3871   0.4546   0.4972   0.5285   0.5730
  0.6106   0.6261   0.6859   0.6912   0.7180   0.7278   0.7395   0.7742
  0.7990   0.8413   0.9028   0.9381   0.9599   1.0452   1.0612   1.0827
  1.0954   1.2047   1.2777   1.2782   1.3426   1.3508   1.3603   1.3867
  1.3895   1.4051   1.4593   1.5331   1.5466   1.5520   1.5633   1.6881
  1.7015   1.7332   1.8022   1.9368   2.0815   2.0866   2.2788   2.3736
  2.3883   2.4573   2.4898   2.5819   2.6040   2.6900   2.7169   2.7741
  2.8076   2.9130   2.9727   3.0037   3.0823   3.0956   3.1564   3.2097
  3.2423   3.2456   3.2582   3.3323   3.3439   3.3742   3.3994   3.4533
  3.4743   3.5058   3.5082   3.5796   3.6340   3.6623   3.7133   3.7720
  3.7776   3.8264   3.8968   3.9631   4.0021   4.0447   4.0591   4.1374
  4.1688   4.1759   4.2032   4.2499   4.2685   4.2802   4.4021   4.4598
  4.4688   4.5369   4.5828   4.5860   4.7162   4.8011   4.8861   4.8917
  5.0279   5.0309   5.1322   5.2254   5.2267   5.2585   5.2675   5.3995
  5.4339   5.4903   5.6199   5.6260   5.6442   5.7175   5.8893   5.9545
  6.0194   6.1762   6.3620   6.4482   6.5099   6.8012   6.8222   7.2681
  7.2981   7.3713  10.4680  11.8368  12.7859

 Beta MOs
 -- Occupied --
-19.0056 -10.1543 -10.1072  -0.8191  -0.5768  -0.4628  -0.3354  -0.2675
 -0.2372  -0.2326  -0.0729  -0.0646
 -- Virtual --
  0.2356   0.3039   0.3193   0.3361   0.3889   0.4585   0.4988   0.5296
  0.5725   0.6294   0.6336   0.6941   0.7001   0.7201   0.7349   0.7516
  0.7846   0.8050   0.8477   0.9144   0.9447   0.9759   1.0478   1.0629
  1.0922   1.1101   1.2068   1.2837   1.2847   1.3442   1.3572   1.3702
  1.3923   1.3945   1.4209   1.4672   1.5390   1.5483   1.5592   1.5809
  1.6985   1.7069   1.7474   1.8176   1.9588   2.0913   2.0993   2.2913
  2.3777   2.4094   2.4698   2.5294   2.5994   2.6098   2.7120   2.7247
  2.7884   2.8312   2.9390   3.0079   3.0185   3.1189   3.1217   3.1660
  3.2456   3.2531   3.2670   3.2758   3.3447   3.3710   3.3937   3.4279
  3.4779   3.4861   3.5240   3.5261   3.5959   3.6438   3.6840   3.7195
  3.7780   3.7824   3.8350   3.9035   3.9738   4.0159   4.0541   4.0741
  4.1496   4.1822   4.1846   4.2117   4.2615   4.2759   4.2984   4.4216
  4.4668   4.4706   4.5435   4.6047   4.6102   4.7263   4.8255   4.8930
  4.9058   5.0425   5.0572   5.1374   5.2425   5.2684   5.2801   5.2842
  5.4176   5.4430   5.5358   5.6415   5.6440   5.6640   5.7437   5.9033
  5.9698   6.0772   6.1829   6.3851   6.4579   6.5213   6.8293   6.8510
  7.2997   7.3072   7.3878  10.4845  11.8662  12.7943
 --------------------------------------------------------------

          Ground-State Mulliken Net Atomic Charges

     Atom                 Charge (a.u.)    Spin (a.u.)
  --------------------------------------------------------
      1 C                     0.154787      -0.016470
      2 C                    -0.474734       0.779503
      3 O                    -0.605999       0.265577
      4 H                    -0.089617      -0.000475
      5 H                    -0.089616      -0.000475
      6 H                     0.052589      -0.013830
      7 H                     0.052590      -0.013830
  --------------------------------------------------------
  Sum of atomic charges =    -1.000000
  Sum of spin   charges =     1.000000

 -----------------------------------------------------------------
                    Cartesian Multipole Moments
 -----------------------------------------------------------------
    Charge (ESU x 10^10)
                -4.8032
    Dipole Moment (Debye)
         X      -1.2154      Y      -0.9149      Z      -0.0004
       Tot       1.5213
    Quadrupole Moments (Debye-Ang)
        XX     -30.8724     XY      -2.4023     YY     -25.1258
        XZ      -0.0009     YZ      -0.0006     ZZ     -22.7155
    Octopole Moments (Debye-Ang^2)
       XXX      10.1525    XXY      -0.5939    XYY       1.6544
       YYY       2.0134    XXZ      -0.0012    XYZ      -0.0002
       YYZ      -0.0013    XZZ       1.6082    YZZ       1.4460
       ZZZ      -0.0024
    Hexadecapole Moments (Debye-Ang^3)
      XXXX    -169.2731   XXXY      -1.0792   XXYY     -38.1897
      XYYY       3.5114   YYYY     -76.1661   XXXZ      -0.0036
      XXYZ      -0.0010   XYYZ      -0.0004   YYYZ      -0.0017
      XXZZ     -32.8298   XYZZ       0.4273   YYZZ     -21.1268
      XZZZ      -0.0025   YZZZ      -0.0026   ZZZZ     -45.0972
 -----------------------------------------------------------------
 Calculating analytic gradient of the SCF energy
 Gradient of SCF Energy
            1           2           3           4           5           6
    1   0.0001003  -0.0001686  -0.0000981   0.0000224   0.0000224   0.0000608
    2   0.0000688   0.0001080  -0.0000508  -0.0000453  -0.0000454  -0.0000177
    3  -0.0000000   0.0000001  -0.0000002   0.0000384  -0.0000382  -0.0000184
            7
    1   0.0000609
    2  -0.0000177
    3   0.0000183
 Max gradient component =       1.686E-04
 RMS gradient           =       6.320E-05
 Gradient time:  CPU 16.90 s  wall 1.35 s

     Step 4	:
        Energy is -153.7281194964
                            Maximum         Tolerance       Converged?
         Gradient           1.31906135e-04	3.00000000e-04	true
         Displacement       5.29253690e-03	1.20000000e-03	false
         Energy change      4.79729408e-06	1.00000000e-06	false


	OPTIMIZATION CYCLE:	5





 Scaling Magnitude of Eigenvalues
 	Minimum: -25.00000000	 Maximum: 25.00000000
 15 Hessian Eigenvalues to form next step
   0.00669144   0.02770692   0.07054432   0.07414785   0.14661273
   0.16000000   0.16000001   0.16270579   0.23525037   0.29492473
   0.30771078   0.32526236   0.32614435   0.33548744   0.42808698


 Minimum Search taking a RFO step
 Searching for Lambda that minimizes along all modes
	Value of Lambda   -0.00000044
	Norm  of Stepsize  0.00231208
	RMS   of Stepsize  0.00059698

	Performing Iterative Coordinate Back-Transformation

	  Starting from Previous Position

	  iter:	0	rms: 6.9273051216e-04	maxdev: 1.9557581549e-03
	  iter:	1	rms: 4.0506876153e-07	maxdev: 6.3318837172e-07	 Success!

	Finished Iterative Coordinate Back-Transformation
 ----------------------------------------------------------------
             Standard Nuclear Orientation (Angstroms)
    I     Atom           X                Y                Z
 ----------------------------------------------------------------
    1      C       0.1680604430    -0.5348581209    -0.0000257831
    2      C      -1.1717594693     0.1731559688     0.0000119451
    3      O       1.0707274208     0.4620545680     0.0001838520
    4      H       0.2153261688    -1.2219083920    -0.8863507260
    5      H       0.2152265777    -1.2221892227     0.8860862780
    6      H      -1.3833301271     0.7388801767    -0.9074668821
    7      H      -1.3834298647     0.7385941456     0.9076459114
 ----------------------------------------------------------------
 Molecular Point Group                 C1    NOp =  1
 Largest Abelian Subgroup              C1    NOp =  1
 Nuclear Repulsion Energy =          68.62644837 hartrees
 There are       13 alpha and       12 beta electrons

                       Distance Matrix (Angstroms)
             C (  1)   C (  2)   O (  3)   H (  4)   H (  5)   H (  6)
   C (  2)  1.515388
   O (  3)  1.344858  2.261020
   H (  4)  1.122428  2.157742  2.086477
   H (  5)  1.122427  2.157741  2.086476  1.772437
   H (  6)  2.202878  1.090103  2.631133  2.529988  3.101292
   H (  7)  2.202878  1.090103  2.631131  3.101292  2.529988  1.815113


 Applying Cartesian multipole field
    Component          Value
    ---------          -----
     (2,0,0)        1.00000E-11
     (0,2,0)        2.00000E-10
     (0,0,2)       -3.00000E-10
 Nucleus-field energy     = 2.8071491123e-09 hartrees
 Requested basis set is cc-pVTZ
 There are 54 shells and 146 basis functions
 A cutoff of  1.0D-12 yielded   1484 shell pairs
 There are     10944 function pairs (     14030 Cartesian)
 Smallest overlap matrix eigenvalue = 1.24E-03
 Guess MOs from SCF MO coefficient file

 -----------------------------------------------------------------------
  General SCF calculation program by
  Eric Jon Sundstrom, Paul Horn, Yuezhi Mao, Dmitri Zuev, Alec White,
  David Stuck, Shaama M.S., Shane Yost, Joonho Lee, David Small,
  Daniel Levine, Susi Lehtola, Hugh Burton, Evgeny Epifanovsky,
  Bang C. Huynh
 -----------------------------------------------------------------------
 Exchange:     0.1500 Hartree-Fock + 1.0000 wB97M-V + LR-HF
 Correlation:  1.0000 wB97M-V
 Using SG-2 standard quadrature grid
 Nonlocal Correlation:  VV10 with C = 0.0100 and b = 6.00 and scale = 1.00000
 Grid used for NLC:  SG-1 standard quadrature
 A unrestricted SCF calculation will be
 performed using DIIS
 SCF converges when DIIS error is below 1.0e-08
 User-specified cutoff of 10e-12
 used for neglect of 2-electron integrals.
 A cutoff of 10e-12
 used for neglect of overlap integrals.
 Incremental Fock algorithm is on at the start.
 ---------------------------------------
  Cycle       Energy         DIIS error
 ---------------------------------------
    1    -153.7281192660      6.16e-06  
    2    -153.7281196984      1.11e-06  
    3    -153.7281197373      4.99e-07  
    4    -153.7281197425      3.47e-07  
    5    -153.7281197457      1.94e-07  
    6    -153.7281197469      9.84e-08  
    7    -153.7281197478      6.65e-08  
    8    -153.7281197482      3.35e-08  
    9    -153.7281197483      1.01e-08  
   10    -153.7281197483      3.26e-09  Convergence criterion met
 ---------------------------------------
 SCF time:   CPU 85.48s  wall 6.00s 
<S^2> =          0.755805784
 SCF   energy =  -153.72811975
 Total energy =  -153.72811975
 Integrated density by DFT XC:
   Number of electrons = 25
   Numerical integral  =    24.999454166377
   Relative error      =     0.0021833345 %

 --------------------------------------------------------------

                    Orbital Energies (a.u.)
 --------------------------------------------------------------

 Alpha MOs
 -- Occupied --
-19.0134 -10.1541 -10.1176  -0.8340  -0.5984  -0.4719  -0.3413  -0.2888
 -0.2448  -0.2431  -0.1214  -0.0809  -0.0559
 -- Virtual --
  0.2999   0.3176   0.3337   0.3871   0.4546   0.4972   0.5285   0.5731
  0.6106   0.6261   0.6857   0.6911   0.7180   0.7277   0.7395   0.7742
  0.7990   0.8412   0.9028   0.9382   0.9599   1.0452   1.0612   1.0827
  1.0954   1.2047   1.2773   1.2781   1.3424   1.3512   1.3602   1.3868
  1.3896   1.4049   1.4594   1.5332   1.5464   1.5519   1.5635   1.6881
  1.7015   1.7334   1.8023   1.9367   2.0816   2.0868   2.2789   2.3736
  2.3882   2.4572   2.4897   2.5814   2.6039   2.6898   2.7173   2.7742
  2.8076   2.9130   2.9726   3.0038   3.0824   3.0956   3.1563   3.2097
  3.2423   3.2455   3.2580   3.3321   3.3438   3.3741   3.3990   3.4536
  3.4743   3.5059   3.5081   3.5799   3.6340   3.6618   3.7133   3.7719
  3.7775   3.8267   3.8971   3.9633   4.0014   4.0448   4.0587   4.1377
  4.1687   4.1759   4.2032   4.2501   4.2685   4.2803   4.4022   4.4594
  4.4687   4.5369   4.5825   4.5859   4.7161   4.8013   4.8862   4.8915
  5.0278   5.0307   5.1322   5.2255   5.2265   5.2582   5.2674   5.3996
  5.4335   5.4905   5.6203   5.6260   5.6442   5.7175   5.8894   5.9545
  6.0195   6.1759   6.3620   6.4481   6.5100   6.8012   6.8222   7.2681
  7.2982   7.3713  10.4671  11.8367  12.7862

 Beta MOs
 -- Occupied --
-19.0055 -10.1543 -10.1073  -0.8190  -0.5768  -0.4627  -0.3354  -0.2675
 -0.2372  -0.2326  -0.0728  -0.0646
 -- Virtual --
  0.2356   0.3039   0.3193   0.3361   0.3889   0.4586   0.4988   0.5296
  0.5726   0.6294   0.6337   0.6941   0.7000   0.7201   0.7349   0.7516
  0.7845   0.8050   0.8476   0.9145   0.9448   0.9758   1.0478   1.0629
  1.0922   1.1101   1.2068   1.2836   1.2843   1.3439   1.3574   1.3702
  1.3924   1.3946   1.4208   1.4673   1.5390   1.5481   1.5591   1.5812
  1.6986   1.7069   1.7476   1.8177   1.9587   2.0914   2.0995   2.2913
  2.3777   2.4094   2.4698   2.5293   2.5990   2.6097   2.7117   2.7251
  2.7885   2.8312   2.9390   3.0079   3.0186   3.1188   3.1218   3.1660
  3.2456   3.2531   3.2671   3.2755   3.3445   3.3711   3.3936   3.4274
  3.4779   3.4864   3.5238   3.5262   3.5962   3.6437   3.6835   3.7195
  3.7779   3.7822   3.8353   3.9038   3.9741   4.0152   4.0542   4.0737
  4.1498   4.1821   4.1847   4.2117   4.2617   4.2759   4.2985   4.4217
  4.4665   4.4705   4.5435   4.6045   4.6100   4.7262   4.8257   4.8932
  4.9056   5.0424   5.0570   5.1375   5.2423   5.2687   5.2801   5.2837
  5.4177   5.4427   5.5360   5.6418   5.6440   5.6642   5.7436   5.9034
  5.9698   6.0773   6.1827   6.3850   6.4578   6.5214   6.8292   6.8510
  7.2997   7.3073   7.3877  10.4836  11.8660  12.7946
 --------------------------------------------------------------

          Ground-State Mulliken Net Atomic Charges

     Atom                 Charge (a.u.)    Spin (a.u.)
  --------------------------------------------------------
      1 C                     0.154901      -0.016534
      2 C                    -0.474361       0.780004
      3 O                    -0.606214       0.265244
      4 H                    -0.089684      -0.000490
      5 H                    -0.089683      -0.000490
      6 H                     0.052520      -0.013866
      7 H                     0.052521      -0.013866
  --------------------------------------------------------
  Sum of atomic charges =    -1.000000
  Sum of spin   charges =     1.000000

 -----------------------------------------------------------------
                    Cartesian Multipole Moments
 -----------------------------------------------------------------
    Charge (ESU x 10^10)
                -4.8032
    Dipole Moment (Debye)
         X      -1.2235      Y      -0.9142      Z      -0.0005
       Tot       1.5274
    Quadrupole Moments (Debye-Ang)
        XX     -30.8725     XY      -2.4019     YY     -25.1261
        XZ      -0.0009     YZ      -0.0006     ZZ     -22.7157
    Octopole Moments (Debye-Ang^2)
       XXX      10.0859    XXY      -0.5959    XYY       1.6436
       YYY       2.0185    XXZ      -0.0013    XYZ      -0.0002
       YYZ      -0.0013    XZZ       1.5963    YZZ       1.4466
       ZZZ      -0.0025
    Hexadecapole Moments (Debye-Ang^3)
      XXXX    -169.3048   XXXY      -1.0798   XXYY     -38.1926
      XYYY       3.5135   YYYY     -76.1445   XXXZ      -0.0036
      XXYZ      -0.0010   XYYZ      -0.0005   YYYZ      -0.0018
      XXZZ     -32.8375   XYZZ       0.4275   YYZZ     -21.1241
      XZZZ      -0.0026   YZZZ      -0.0026   ZZZZ     -45.1040
 -----------------------------------------------------------------
 Calculating analytic gradient of the SCF energy
 Gradient of SCF Energy
            1           2           3           4           5           6
    1   0.0000652  -0.0000792  -0.0000133  -0.0000109  -0.0000109   0.0000246
    2   0.0000609   0.0000046  -0.0000271  -0.0000213  -0.0000211   0.0000019
    3  -0.0000001   0.0000001  -0.0000000  -0.0000212   0.0000213  -0.0000100
            7
    1   0.0000246
    2   0.0000021
    3   0.0000100
 Max gradient component =       7.925E-05
 RMS gradient           =       2.978E-05
 Gradient time:  CPU 16.85 s  wall 1.20 s

     Step 5	:
        Energy is -153.7281197483
                            Maximum         Tolerance       Converged?
         Gradient           3.93238577e-05	3.00000000e-04	true
         Displacement       1.23317569e-03	1.20000000e-03	false
         Energy change      2.51925542e-07	1.00000000e-06	true

	 Optimization Converged in 5 cycles

 *****************************************************
             End of BFGS Algorithm
 *****************************************************
		----------------------------------
		   Verification of Optimization
		----------------------------------

 Eigenvalues of Hessian in Optimization Verification
   0.00669145   0.02526047   0.06766092   0.07414788   0.12985983
   0.16000000   0.16000001   0.17644026   0.24299196   0.28933197
   0.30397708   0.32526237   0.32614437   0.33691276   0.42679250


 Found a minimum
		---------------------------------
		       End of Verification
		---------------------------------

 Final energy is -153.728119748327

	******************************
	**  OPTIMIZATION CONVERGED  **
	******************************
 ----------------------------------------------------------------
             Standard Nuclear Orientation (Angstroms)
    I     Atom           X                Y                Z
 ----------------------------------------------------------------
    1      C       0.1680604430    -0.5348581209    -0.0000257831
    2      C      -1.1717594693     0.1731559688     0.0000119451
    3      O       1.0707274208     0.4620545680     0.0001838520
    4      H       0.2153261688    -1.2219083920    -0.8863507260
    5      H       0.2152265777    -1.2221892227     0.8860862780
    6      H      -1.3833301271     0.7388801767    -0.9074668821
    7      H      -1.3834298647     0.7385941456     0.9076459114
 ----------------------------------------------------------------
 Molecular Point Group                 C1    NOp =  1
 Largest Abelian Subgroup              C1    NOp =  1
 Nuclear Repulsion Energy =          68.62644837 hartrees
 There are       13 alpha and       12 beta electrons

Z-matrix Print:
$molecule
-1 2
C 
H  1 1.122427
H  1 1.122428 2 104.287926
O  1 1.344858 2 115.188755 3 -127.237260 0
C  1 1.515388 2 108.858895 3 116.069990 0
H  5 1.090103 1 114.459199 2 -170.395282 0
H  5 1.090103 1 114.459180 2 57.300031 0
$end

 -----------------------------------------------------------------------
                  END OF GEOMETRY OPTIMIZER USING LIBOPT3               
 -----------------------------------------------------------------------
 Total job time:  52.74s(wall), 746.83s(cpu) 
 Wed Jan 14 19:25:04 2026

        *************************************************************
        *                                                           *
        *  Thank you very much for using Q-Chem.  Have a nice day.  *
        *                                                           *
        *************************************************************


 
User input: 2 of 2 
 
                  Welcome to Q-Chem
     A Quantum Leap Into The Future Of Chemistry


 Q-Chem 6.4 (devel), Q-Chem, Inc., Pleasanton, CA (2025)

 E. Epifanovsky,  A. T. B. Gilbert,  Xintian Feng,  Joonho Lee,  Yuezhi Mao,  
 N. Mardirossian,  P. Pokhilko,  A. White,  M. Wormit,  M. P. Coons,  
 A. L. Dempwolff,  Zhengting Gan,  D. Hait,  P. R. Horn,  L. D. Jacobson,  
 I. Kaliman,  J. Kussmann,  A. W. Lange,  Ka Un Lao,  D. S. Levine,  Jie Liu,  
 S. C. McKenzie,  A. F. Morrison,  K. D. Nanda,  F. Plasser,  D. R. Rehn,  
 M. L. Vidal,  Zhi-Qiang You,  Ying Zhu,  Huseyin Aksu,  B. Alam,  
 B. Albrecht,  A. Aldossary,  E. Alguire,  J. H. Andersen,  
 J. E. Arias-Martinez,  V. Athavale,  F. Ballesteros,  D. Barton,  K. Begam,  
 A. Behn,  N. Bellonzi,  Y. A. Bernard,  E. J. Berquist,  H. Burton,  
 S. Camps,  A. Carreras,  K. Carter-Fenk,  Mathew Chow,  Jeng-Da Chai,  
 Arnab Chakraborty,  Romit Chakraborty,  Chandrima Chakravarty,  Junhan Chen,  
 A. D. Chien,  K. D. Closser,  V. Cofer-Shabica,  L. Cunha,  S. Dasgupta,  
 Jia Deng,  Joseph Dickinson,  M. de Wergifosse,  M. Diedenhofen,  
 L. B. Dittmer,  Hainam Do,  Wenjie Dou,  S. Ehlert,  Po-Tung Fang,  
 Anthuan Ferino-Pérez,  S. Fatehi,  Qingguo Feng,  Jonathan Fetherolf,  
 T. Friedhoff,  Thomas Froitzheim,  Sarai Folkestad,  B. Ganoe,  J. Gayvert,  
 Qinghui Ge,  G. Gidofalvi,  M. Gimferrer,  G. Giudetti,  M. Goldey,  
 Montgomery Gray,  J. Gomes,  C. Gonzalez-Espinoza,  S. Gulania,  A. Gunina,  
 J. A. Gyamfi,  M. W. D. Hanson-Heine,  P. H. P. Harbach,  A. W. Hauser,  
 M. F. Herbst,  M. Hernandez Vera,  M. Hodecker,  Z. C. Holden,  S. Houck,  
 Xunkun Huang,  Kerwin Hui,  B. C. Huynh,  K. Ikeda,  M. Ivanov,  
 Nayanthara K. Jayadev,  Hyunjun Ji,  Zuxin Jin,  Hanjie Jiang,  
 Subrata Jana,  B. Kaduk,  S. Kaehler,  Richard Kang,  K. Khistyaev,  
 Jaehoon Kim,  Yongbin Kim,  P. Klunzinger,  Z. Koczor-Benda,  
 Joong Hoon Koh,  Elena Kolodzeiski,  D. Kosenkov,  Saikiran Kotaru,  
 L. Koulias,  T. Kowalczyk,  C. M. Krauter,  K. Kue,  A. Kunitsa,  T. Kus,  
 A. Landau,  C. W. Lander,  K. V. Lawler,  D. Lefrancois,  S. Lehtola,  
 Rain Li,  Shaozhi Li,  Tao E. Li,  Yi-Pei Li,  Jiashu Liang,  M. Liebenthal,  
 Hung-Hsuan Lin,  You-Sheng Lin,  Fenglai Liu,  Kuan-Yu Liu,  Xiao Liu,  
 M. Loipersberger,  A. Luenser,  C. Malbon,  Aniket Mandal,  Manisha,  
 A. Manjanath,  P. Manohar,  E. Mansoor,  S. F. Manzer,  Shan-Ping Mao,  
 A. V. Marenich,  T. Markovich,  S. Mason,  F. Matz,  S. A. Maurer,  
 Samuel May,  Alexandra McIsaac,  P. F. McLaughlin,  M. F. S. J. Menger,  
 J.-M. Mewes,  S. A. Mewes,  R. E. Moorby,  P. Morgante,  
 Mohammad Mostafanejad,  Madhubani Mukherjee,  J. W. Mullinax,  Quyen Nguyen,  
 Avik Kumar Ojha,  K. J. Oosterbaan,  Eno Paenurk,  Xiaoliang Pan,  G. Paran,  
 V. Parravicini,  R. L. Patterson,  Alexander C. Paul,  Suranjan K. Paul,  
 F. Pavosevic,  Zheng Pei,  P. Pokhilko,  S. Prager,  E. I. Proynov,  
 E. Ramos,  B. Rana,  A. E. Rask,  A. Rettig,  R. M. Richard,  F. Rob,  
 E. Rossomme,  S. Roy,  T. Scheele,  M. Scheurer,  M. Schneider,  
 P. E. Schneider,  Tim K. Schramm,  N. Sergueev,  S. M. Sharada,  
 Hengyuan Shen,  W. Skomorowski,  D. W. Small,  C. J. Stein,  
 Alistair J. Sterling,  Yingli Su,  Yu-Chuan Su,  E. J. Sundstrom,  
 J. Talbot,  J. A. Tan,  Zhen Tao,  Hung-Hsuan Teh,  J. Thirman,  C. Titeca,  
 N. Tkachenko,  Hung-Yi Tsai,  T. Tsuchimochi,  N. M. Tubman,  C. Utku,  
 S. P. Veccham,  O. Vydrov,  Z. Wang,  Markus G. S. Weiss,  Rahel Weiss,  
 J. Wenzel,  Jonathan Wong,  J. Witte,  H. Wu,  Yanze Wu,  A. Yamada,  
 Chou-Hsun Yang,  Kun Yao,  S. Yeganeh,  S. R. Yost,  Qi Yu,  A. Zech,  
 F. Zeller,  Chongxiao Zhao,  T. Zhao,  Igor Ying Zhang,  Xing Zhang,  
 Yu Zhang,  Zeyi Zhang,  D. Zuev,  A. Aspuru-Guzik,  A. T. Bell,  
 N. A. Besley,  K. B. Bravaya,  B. R. Brooks,  D. Casanova,  Jeng-Da Chai,  
 Hsing-Ta Chen,  S. Coriani,  C. J. Cramer,  A. E. DePrince, III,  
 R. A. DiStasio Jr.,  A. Dreuw,  B. D. Dunietz,  T. R. Furlani,  
 W. A. Goddard III,  S. Grimme,  S. Hammes-Schiffer,  T. Head-Gordon,  
 W. J. Hehre,  Chao-Ping Hsu,  T.-C. Jagau,  Yousung Jung,  A. Klamt,  
 Jing Kong,  D. S. Lambrecht,  Xiangyuan Li,  WanZhen Liang,  N. J. Mayhall,  
 C. W. McCurdy,  J. B. Neaton,  T. Neudecker,  C. Ochsenfeld,  
 J. A. Parkhill,  R. Peverati,  V. A. Rassolov,  Haisheng Ren,  Yihan Shao,  
 L. V. Slipchenko,  R. P. Steele,  J. E. Subotnik,  A. J. W. Thom,  
 A. Tkatchenko,  D. G. Truhlar,  T. Van Voorhis,  Fan Wang,  
 T. A. Wesolowski,  K. B. Whaley,  H. L. Woodcock III,  P. M. Zimmerman,  
 S. Faraji,  P. M. W. Gill,  M. Head-Gordon,  J. M. Herbert,  A. I. Krylov

 Contributors to earlier versions of Q-Chem not listed above: 
 R. D. Adamson,  B. Austin,  R. Baer,  J. Baker,  G. J. O. Beran,  
 K. Brandhorst,  S. T. Brown,  E. F. C. Byrd,  Arup K. Chakraborty,  
 G. K. L. Chan,  Chun-Min Chang,  Yunqing Chen,  C.-L. Cheng,  
 Siu Hung Chien,  D. M. Chipman,  D. L. Crittenden,  H. Dachsel,  
 R. J. Doerksen,  A. D. Dutoi,  R. G. Edgar,  J. Fosso-Tande,  
 L. Fusti-Molnar,  D. Ghosh,  A. Ghysels,  A. Golubeva-Zadorozhnaya,  
 J. Gonthier,  M. S. Gordon,  S. R. Gwaltney,  G. Hawkins,  J. E. Herr,  
 A. Heyden,  S. Hirata,  E. G. Hohenstein,  G. Kedziora,  F. J. Keil,  
 C. Kelley,  Jihan Kim,  R. A. King,  R. Z. Khaliullin,  P. P. Korambath,  
 W. Kurlancheek,  A. Laurent,  A. M. Lee,  M. S. Lee,  S. V. Levchenko,  
 Ching Yeh Lin,  D. Liotard,  E. Livshits,  R. C. Lochan,  I. Lotan,  
 L. A. Martinez-Martinez,  P. E. Maslen,  N. Nair,  D. P. O'Neill,  
 D. Neuhauser,  E. Neuscamman,  C. M. Oana,  R. Olivares-Amaya,  R. Olson,  
 T. M. Perrine,  B. Peters,  P. A. Pieniazek,  A. Prociuk,  Y. M. Rhee,  
 J. Ritchie,  M. A. Rohrdanz,  E. Rosta,  N. J. Russ,  H. F. Schaefer III,  
 M. W. Schmidt,  N. E. Schultz,  S. Sharma,  N. Shenvi,  C. D. Sherrill,  
 A. C. Simmonett,  A. Sodt,  T. Stein,  D. Stuck,  K. S. Thanthiriwatte,  
 V. Vanovschi,  L. Vogt,  Tao Wang,  A. Warshel,  M. A. Watson,  
 C. F. Williams,  Q. Wu,  X. Xu,  Jun Yang,  W. Zhang,  Yan Zhao

   Please cite Q-Chem as follows:
  "Software for the frontiers of quantum chemistry:
   An overview of developments in the Q-Chem 5 package"
   J. Chem. Phys. 155, 084801 (2021)
   https://doi.org/10.1063/5.0055522 (open access)

 Q-Chem 6.4.0 for Intel X86 EM64T Linux

 Parts of Q-Chem use Armadillo 12.8.2 (Cortisol Injector).
 http://arma.sourceforge.net/

 Q-Chem begins on Wed Jan 14 19:25:04 2026  

 Host: orc44
0

 Scratch files written to /scratch/bibhas/qchem12145//
 Executable: /qcsoftware/qchem_latest/exe/qcprog.exe
 Number of threads = 20
 Processing $rem in /qcsoftware/qchem_latest/config/preferences:
 Processing $rem in /home/users/bibhas/.qchemrc:

 Checking the input file for inconsistencies... 	...done.

--------------------------------------------------------------
User input:
--------------------------------------------------------------

$molecule
read
$end

$rem
   JOB_TYPE = freq
   GUI = 2
   METHOD  =  wB97M-V
   BASIS  =  cc-pVTZ
   SYMMETRY_IGNORE  = 1
   SCF_CONVERGENCE  =  8
   MEM_TOTAL = 200000
$end


--------------------------------------------------------------
 ----------------------------------------------------------------
             Standard Nuclear Orientation (Angstroms)
    I     Atom           X                Y                Z
 ----------------------------------------------------------------
    1      C       0.1680604430    -0.5348581209    -0.0000257831
    2      C      -1.1717594693     0.1731559688     0.0000119451
    3      O       1.0707274208     0.4620545680     0.0001838520
    4      H       0.2153261688    -1.2219083920    -0.8863507260
    5      H       0.2152265777    -1.2221892227     0.8860862780
    6      H      -1.3833301271     0.7388801767    -0.9074668821
    7      H      -1.3834298647     0.7385941456     0.9076459114
 ----------------------------------------------------------------
 Nuclear Repulsion Energy =          68.62644837 hartrees
 There are       13 alpha and       12 beta electrons
 Requested basis set is cc-pVTZ
 There are 54 shells and 146 basis functions

 Total QAlloc Memory Limit 200000 MB
 Mega-Array Size       188 MB
 MEM_STATIC part       192 MB


                       Distance Matrix (Angstroms)
             C (  1)   C (  2)   O (  3)   H (  4)   H (  5)   H (  6)
   C (  2)  1.515388
   O (  3)  1.344858  2.261020
   H (  4)  1.122428  2.157742  2.086477
   H (  5)  1.122427  2.157741  2.086476  1.772437
   H (  6)  2.202878  1.090103  2.631133  2.529988  3.101292
   H (  7)  2.202878  1.090103  2.631131  3.101292  2.529988  1.815113


 A cutoff of  1.0D-12 yielded   1484 shell pairs
 There are     10944 function pairs (     14030 Cartesian)
 Smallest overlap matrix eigenvalue = 1.24E-03
 Guess from superposition of atomic densities
 Warning:  Energy on first SCF cycle will be non-variational
 SAD guess density has 24.000000 electrons

 -----------------------------------------------------------------------
  General SCF calculation program by
  Eric Jon Sundstrom, Paul Horn, Yuezhi Mao, Dmitri Zuev, Alec White,
  David Stuck, Shaama M.S., Shane Yost, Joonho Lee, David Small,
  Daniel Levine, Susi Lehtola, Hugh Burton, Evgeny Epifanovsky,
  Bang C. Huynh
 -----------------------------------------------------------------------
 Exchange:     0.1500 Hartree-Fock + 1.0000 wB97M-V + LR-HF
 Correlation:  1.0000 wB97M-V
 Using SG-2 standard quadrature grid
 Nonlocal Correlation:  VV10 with C = 0.0100 and b = 6.00 and scale = 1.00000
 Grid used for NLC:  SG-1 standard quadrature
 using 20 threads for integral computing
 -------------------------------------------------------
 OpenMP Integral computing Module                
 Release: version 1.0, May 2013, Q-Chem Inc. Pittsburgh 
 -------------------------------------------------------
 A unrestricted SCF calculation will be
 performed using DIIS
 SCF converges when DIIS error is below 1.0e-08
 User-specified cutoff of 10e-12
 used for neglect of 2-electron integrals.
 A cutoff of 10e-12
 used for neglect of overlap integrals.
 Incremental Fock algorithm is on at the start.
 ---------------------------------------
  Cycle       Energy         DIIS error
 ---------------------------------------
    1    -154.0106346385      1.72e-02  
    2    -153.5786578567      3.89e-03  
    3    -153.4916097947      5.46e-03  
    4    -153.7246476080      5.27e-04  
    5    -153.7273854636      2.14e-04  
    6    -153.7279325440      4.95e-05  
    7    -153.7280225308      2.75e-05  
    8    -153.7280777688      1.98e-05  
    9    -153.7281035320      1.29e-05  
   10    -153.7281173316      6.00e-06  
   11    -153.7281196729      1.03e-06  
   12    -153.7281197471      2.99e-07  
   13    -153.7281197509      7.39e-08  
   14    -153.7281197511      1.63e-08  
   15    -153.7281197511      4.38e-09  Convergence criterion met
 ---------------------------------------
 SCF time:   CPU 125.21s  wall 8.00s 
<S^2> =          0.755805752
 SCF   energy =  -153.72811975
 Total energy =  -153.72811975
 Integrated density by DFT XC:
   Number of electrons = 25
   Numerical integral  =    24.999454166632
   Relative error      =     0.0021833335 %

 --------------------------------------------------------------

                    Orbital Energies (a.u.)
 --------------------------------------------------------------

 Alpha MOs
 -- Occupied --
-19.0134 -10.1541 -10.1176  -0.8340  -0.5984  -0.4719  -0.3413  -0.2888
 -0.2448  -0.2431  -0.1214  -0.0809  -0.0559
 -- Virtual --
  0.2999   0.3176   0.3337   0.3871   0.4546   0.4972   0.5285   0.5731
  0.6106   0.6261   0.6857   0.6911   0.7180   0.7277   0.7395   0.7742
  0.7990   0.8412   0.9028   0.9382   0.9599   1.0452   1.0612   1.0827
  1.0954   1.2047   1.2773   1.2781   1.3424   1.3512   1.3602   1.3868
  1.3896   1.4049   1.4594   1.5332   1.5464   1.5519   1.5635   1.6881
  1.7015   1.7334   1.8023   1.9367   2.0816   2.0868   2.2789   2.3736
  2.3882   2.4572   2.4897   2.5814   2.6039   2.6898   2.7173   2.7742
  2.8076   2.9130   2.9726   3.0038   3.0824   3.0956   3.1563   3.2097
  3.2423   3.2455   3.2580   3.3321   3.3438   3.3741   3.3990   3.4536
  3.4743   3.5059   3.5081   3.5799   3.6340   3.6618   3.7133   3.7719
  3.7775   3.8267   3.8971   3.9633   4.0014   4.0448   4.0587   4.1377
  4.1687   4.1759   4.2032   4.2501   4.2685   4.2803   4.4022   4.4594
  4.4687   4.5369   4.5825   4.5859   4.7161   4.8013   4.8862   4.8915
  5.0278   5.0307   5.1322   5.2255   5.2265   5.2582   5.2674   5.3996
  5.4335   5.4905   5.6203   5.6260   5.6442   5.7175   5.8894   5.9545
  6.0195   6.1759   6.3620   6.4481   6.5100   6.8012   6.8222   7.2681
  7.2982   7.3713  10.4671  11.8367  12.7862

 Beta MOs
 -- Occupied --
-19.0055 -10.1543 -10.1073  -0.8190  -0.5768  -0.4627  -0.3354  -0.2675
 -0.2372  -0.2326  -0.0728  -0.0646
 -- Virtual --
  0.2356   0.3039   0.3193   0.3361   0.3889   0.4586   0.4988   0.5296
  0.5726   0.6294   0.6337   0.6941   0.7000   0.7201   0.7349   0.7516
  0.7845   0.8050   0.8476   0.9145   0.9448   0.9758   1.0478   1.0629
  1.0922   1.1101   1.2068   1.2836   1.2843   1.3439   1.3574   1.3702
  1.3924   1.3946   1.4208   1.4673   1.5390   1.5481   1.5591   1.5812
  1.6986   1.7069   1.7476   1.8177   1.9587   2.0914   2.0995   2.2913
  2.3777   2.4094   2.4698   2.5293   2.5990   2.6097   2.7117   2.7251
  2.7885   2.8312   2.9390   3.0079   3.0186   3.1188   3.1218   3.1660
  3.2456   3.2531   3.2671   3.2755   3.3445   3.3711   3.3936   3.4274
  3.4779   3.4864   3.5238   3.5262   3.5962   3.6437   3.6835   3.7195
  3.7779   3.7822   3.8353   3.9038   3.9741   4.0152   4.0542   4.0737
  4.1498   4.1821   4.1847   4.2117   4.2617   4.2759   4.2985   4.4217
  4.4665   4.4705   4.5435   4.6045   4.6100   4.7262   4.8257   4.8932
  4.9056   5.0424   5.0570   5.1375   5.2423   5.2687   5.2801   5.2837
  5.4177   5.4427   5.5360   5.6418   5.6440   5.6642   5.7436   5.9034
  5.9698   6.0773   6.1827   6.3850   6.4578   6.5214   6.8292   6.8510
  7.2997   7.3073   7.3877  10.4836  11.8660  12.7946
 --------------------------------------------------------------

          Ground-State Mulliken Net Atomic Charges

     Atom                 Charge (a.u.)    Spin (a.u.)
  --------------------------------------------------------
      1 C                     0.154901      -0.016534
      2 C                    -0.474361       0.780004
      3 O                    -0.606214       0.265243
      4 H                    -0.089684      -0.000490
      5 H                    -0.089683      -0.000491
      6 H                     0.052520      -0.013866
      7 H                     0.052521      -0.013866
  --------------------------------------------------------
  Sum of atomic charges =    -1.000000
  Sum of spin   charges =     1.000000

 -----------------------------------------------------------------
                    Cartesian Multipole Moments
 -----------------------------------------------------------------
    Charge (ESU x 10^10)
                -4.8032
    Dipole Moment (Debye)
         X      -1.2235      Y      -0.9142      Z      -0.0005
       Tot       1.5274
    Quadrupole Moments (Debye-Ang)
        XX     -30.8725     XY      -2.4019     YY     -25.1261
        XZ      -0.0009     YZ      -0.0006     ZZ     -22.7157
    Octopole Moments (Debye-Ang^2)
       XXX      10.0859    XXY      -0.5959    XYY       1.6436
       YYY       2.0185    XXZ      -0.0013    XYZ      -0.0002
       YYZ      -0.0013    XZZ       1.5963    YZZ       1.4466
       ZZZ      -0.0025
    Hexadecapole Moments (Debye-Ang^3)
      XXXX    -169.3048   XXXY      -1.0798   XXYY     -38.1926
      XYYY       3.5135   YYYY     -76.1445   XXXZ      -0.0036
      XXYZ      -0.0010   XYYZ      -0.0005   YYYZ      -0.0018
      XXZZ     -32.8375   XYZZ       0.4275   YYZZ     -21.1241
      XZZZ      -0.0026   YZZZ      -0.0026   ZZZZ     -45.1040
 -----------------------------------------------------------------
 Calculating MO derivatives via CPSCF
    1     0    24    0.0498023  
    2     0    24    0.0261350  
    3     0    24    0.0212892  
    4     0    24    0.0044754  
    5     0    24    0.0009215  
    6     0    24    0.0001426  
    7    20     4    0.0000250  
    8    23     1    0.0000046  
    9    24     0    0.0000006  Converged
 Polarizability Matrix (a.u.)
            1           2           3
    1 -61.9104800   2.5265739  -0.0011126
    2   2.5265739 -36.7176901  -0.0001515
    3  -0.0011126  -0.0001515 -34.9868538
 Calculating analytic Hessian of the SCF energy

 Direct stationary perturbation theory relativistic correction:


 **********************************************************************
 **                                                                  **
 **                       VIBRATIONAL ANALYSIS                       **
 **                       --------------------                       **
 **                                                                  **
 **        VIBRATIONAL FREQUENCIES (CM**-1) AND NORMAL MODES         **
 **     FORCE CONSTANTS (mDYN/ANGSTROM) AND REDUCED MASSES (AMU)     **
 **                  INFRARED INTENSITIES (KM/MOL)                   **
 **                                                                  **
 **********************************************************************


 Mode:                 1                      2                      3
 Frequency:       315.34                 403.36                 733.00
 Force Cnst:      0.0626                 0.2302                 0.6036
 Red. Mass:       1.0691                 2.4014                 1.9067
 IR Active:          YES                    YES                    YES
 IR Intens:       10.344                123.806                 85.861
 Raman Active:       YES                    YES                    YES
               X      Y      Z        X      Y      Z        X      Y      Z
 C          0.000  0.000 -0.038   -0.015  0.160  0.000   -0.063 -0.034 -0.000
 C          0.000 -0.000  0.030   -0.162 -0.052 -0.000    0.246  0.101  0.000
 O         -0.000 -0.000  0.049    0.220 -0.063  0.000   -0.064  0.012 -0.000
 H         -0.062  0.127 -0.141   -0.099  0.120  0.009   -0.082 -0.064  0.009
 H          0.062 -0.127 -0.141   -0.099  0.120 -0.009   -0.082 -0.064 -0.009
 H         -0.392 -0.514 -0.201   -0.594 -0.263 -0.027   -0.502 -0.430 -0.110
 H          0.392  0.514 -0.201   -0.593 -0.263  0.026   -0.502 -0.430  0.109
 TransDip   0.000  0.000 -0.103   -0.355  0.031 -0.000   -0.294 -0.041 -0.000

 Mode:                 4                      5                      6
 Frequency:       801.08                 988.29                1168.39
 Force Cnst:      0.4004                 1.9562                 6.9831
 Red. Mass:       1.0591                 3.3993                 8.6820
 IR Active:          YES                    YES                    YES
 IR Intens:        4.363                 17.502                105.155
 Raman Active:       YES                    YES                    YES
               X      Y      Z        X      Y      Z        X      Y      Z
 C         -0.000 -0.000  0.050    0.324 -0.131 -0.000    0.221  0.545  0.000
 C         -0.000 -0.000  0.041   -0.172  0.219  0.000    0.154 -0.112 -0.000
 O          0.000  0.000 -0.020   -0.098 -0.059 -0.000   -0.309 -0.369 -0.000
 H         -0.284  0.275 -0.194    0.356 -0.167 -0.003    0.073  0.401 -0.069
 H          0.284 -0.275 -0.194    0.356 -0.167  0.003    0.073  0.401  0.069
 H          0.492 -0.171 -0.182   -0.475  0.112  0.002    0.139 -0.046  0.027
 H         -0.492  0.171 -0.182   -0.475  0.112 -0.002    0.139 -0.046 -0.027
 TransDip  -0.000 -0.000  0.067    0.125  0.048  0.000    0.071  0.321  0.000

 Mode:                 7                      8                      9
 Frequency:      1172.30                1245.67                1331.74
 Force Cnst:      1.3247                 0.9905                 1.2775
 Red. Mass:       1.6361                 1.0834                 1.2226
 IR Active:          YES                    YES                    YES
 IR Intens:        2.358                  1.741                  0.978
 Raman Active:       YES                    YES                    YES
               X      Y      Z        X      Y      Z        X      Y      Z
 C         -0.000 -0.000  0.203   -0.000 -0.000  0.010   -0.127  0.016 -0.000
 C          0.000  0.000 -0.105    0.000  0.000 -0.072   -0.013  0.035  0.000
 O          0.000  0.000 -0.061   -0.000 -0.000  0.034    0.012 -0.033 -0.000
 H          0.070  0.524 -0.204   -0.652 -0.139  0.047    0.682  0.061  0.022
 H         -0.070 -0.524 -0.204    0.652  0.139  0.047    0.682  0.061 -0.022
 H         -0.313  0.203  0.107   -0.171  0.135  0.056    0.061 -0.103 -0.084
 H          0.313 -0.203  0.107    0.171 -0.135  0.056    0.061 -0.103  0.084
 TransDip  -0.000 -0.000  0.049   -0.000 -0.000  0.042   -0.014 -0.029 -0.000

 Mode:                10                     11                     12
 Frequency:      1436.11                1482.03                2645.91
 Force Cnst:      1.3954                 1.4140                 4.5361
 Red. Mass:       1.1483                 1.0926                 1.0997
 IR Active:          YES                    YES                    YES
 IR Intens:        3.938                 64.433                459.963
 Raman Active:       YES                    YES                    YES
               X      Y      Z        X      Y      Z        X      Y      Z
 C         -0.045  0.004 -0.000    0.003 -0.087 -0.000    0.000  0.000 -0.091
 C          0.076 -0.070 -0.000    0.010 -0.004 -0.000    0.000 -0.000  0.001
 O          0.001 -0.002 -0.000   -0.001 -0.007 -0.000   -0.000 -0.000  0.001
 H          0.128 -0.051  0.058   -0.006  0.560 -0.420   -0.059  0.431  0.553
 H          0.128 -0.051 -0.058   -0.006  0.560  0.420    0.059 -0.431  0.553
 H         -0.322  0.459  0.396   -0.061  0.036  0.036   -0.005  0.015 -0.021
 H         -0.322  0.459 -0.395   -0.061  0.036 -0.036    0.005 -0.015 -0.021
 TransDip   0.063  0.011  0.000    0.165 -0.197 -0.000    0.000  0.000 -0.687

 Mode:                13                     14                     15
 Frequency:      2689.00                3046.31                3120.51
 Force Cnst:      4.4440                 5.7433                 6.3753
 Red. Mass:       1.0431                 1.0504                 1.1112
 IR Active:          YES                    YES                    YES
 IR Intens:      540.961                 94.476                117.164
 Raman Active:       YES                    YES                    YES
               X      Y      Z        X      Y      Z        X      Y      Z
 C          0.014 -0.053 -0.000   -0.004 -0.000 -0.000    0.000  0.000 -0.005
 C          0.001 -0.000 -0.000    0.027 -0.056 -0.000    0.000  0.000 -0.097
 O         -0.007 -0.008 -0.000   -0.000  0.001  0.000   -0.000 -0.000  0.001
 H         -0.035  0.390  0.587    0.006 -0.009 -0.007   -0.000  0.012  0.021
 H         -0.034  0.390 -0.587    0.006 -0.009  0.007    0.000 -0.012  0.021
 H         -0.007 -0.004 -0.014   -0.142  0.338 -0.603    0.140 -0.369  0.583
 H         -0.007 -0.004  0.014   -0.142  0.338  0.603   -0.140  0.368  0.583
 TransDip   0.292 -0.685 -0.000    0.222 -0.218 -0.000    0.000  0.000 -0.347

 STANDARD THERMODYNAMIC QUANTITIES AT   298.15 K  AND     1.00 ATM

   This Molecule has  0 Imaginary Frequencies
   Zero point vibrational energy:       32.278 kcal/mol

   Atom    1 Element C  Has Mass   12.00000
   Atom    2 Element C  Has Mass   12.00000
   Atom    3 Element O  Has Mass   15.99491
   Atom    4 Element H  Has Mass    1.00783
   Atom    5 Element H  Has Mass    1.00783
   Atom    6 Element H  Has Mass    1.00783
   Atom    7 Element H  Has Mass    1.00783
   Molecular Mass:    44.026230 amu
   Principal axes and moments of inertia in amu*Bohr^2:
                             1           2           3
    Eigenvalues --       51.28590   150.98262   179.10458
          X               0.99818     0.06032    -0.00006
          Y               0.06032    -0.99818    -0.00016
          Z               0.00007    -0.00016     1.00000
   Rotational Symmetry Number is   1
   The Molecule is an Asymmetric Top
   Translational Enthalpy:        0.889 kcal/mol
   Rotational Enthalpy:           0.889 kcal/mol
   Vibrational Enthalpy:         32.904 kcal/mol
   gas constant (RT):             0.592 kcal/mol
   Translational Entropy:        37.273  cal/mol.K
   Rotational Entropy:           21.855  cal/mol.K
   Vibrational Entropy:           3.038  cal/mol.K

   Total Enthalpy:               35.274 kcal/mol
   Total Entropy:                62.166  cal/mol.K

   Quasi-RRHO corrections using alpha = 4, and omega = 100 cm^-1
   QRRHO-Vib. Enthalpy:          32.897 kcal/mol
   QRRHO-Vib. Entropy:            3.044  cal/mol.K
   QRRHO-Total Enthalpy:         35.267 kcal/mol
   QRRHO-Total Entropy:          62.172  cal/mol.K
 Total job time:  166.90s(wall), 1234.75s(cpu) 
 Wed Jan 14 19:27:51 2026

        *************************************************************
        *                                                           *
        *  Thank you very much for using Q-Chem.  Have a nice day.  *
        *                                                           *
        *************************************************************


