                  Welcome to Q-Chem
     A Quantum Leap Into The Future Of Chemistry


 Q-Chem 6.4 (devel), Q-Chem, Inc., Pleasanton, CA (2025)

 E. Epifanovsky,  A. T. B. Gilbert,  Xintian Feng,  Joonho Lee,  Yuezhi Mao,  
 N. Mardirossian,  P. Pokhilko,  A. White,  M. Wormit,  M. P. Coons,  
 A. L. Dempwolff,  Zhengting Gan,  D. Hait,  P. R. Horn,  L. D. Jacobson,  
 I. Kaliman,  J. Kussmann,  A. W. Lange,  Ka Un Lao,  D. S. Levine,  Jie Liu,  
 S. C. McKenzie,  A. F. Morrison,  K. D. Nanda,  F. Plasser,  D. R. Rehn,  
 M. L. Vidal,  Zhi-Qiang You,  Ying Zhu,  Huseyin Aksu,  B. Alam,  
 B. Albrecht,  A. Aldossary,  E. Alguire,  J. H. Andersen,  
 J. E. Arias-Martinez,  V. Athavale,  F. Ballesteros,  D. Barton,  K. Begam,  
 A. Behn,  N. Bellonzi,  Y. A. Bernard,  E. J. Berquist,  H. Burton,  
 S. Camps,  A. Carreras,  K. Carter-Fenk,  Mathew Chow,  Jeng-Da Chai,  
 Arnab Chakraborty,  Romit Chakraborty,  Chandrima Chakravarty,  Junhan Chen,  
 A. D. Chien,  K. D. Closser,  V. Cofer-Shabica,  L. Cunha,  S. Dasgupta,  
 Jia Deng,  Joseph Dickinson,  M. de Wergifosse,  M. Diedenhofen,  
 L. B. Dittmer,  Hainam Do,  Wenjie Dou,  S. Ehlert,  Po-Tung Fang,  
 Anthuan Ferino-Pérez,  S. Fatehi,  Qingguo Feng,  Jonathan Fetherolf,  
 T. Friedhoff,  Thomas Froitzheim,  Sarai Folkestad,  B. Ganoe,  J. Gayvert,  
 Qinghui Ge,  G. Gidofalvi,  M. Gimferrer,  G. Giudetti,  M. Goldey,  
 Montgomery Gray,  J. Gomes,  C. Gonzalez-Espinoza,  S. Gulania,  A. Gunina,  
 J. A. Gyamfi,  M. W. D. Hanson-Heine,  P. H. P. Harbach,  A. W. Hauser,  
 M. F. Herbst,  M. Hernandez Vera,  M. Hodecker,  Z. C. Holden,  S. Houck,  
 Xunkun Huang,  Kerwin Hui,  B. C. Huynh,  K. Ikeda,  M. Ivanov,  
 Nayanthara K. Jayadev,  Hyunjun Ji,  Zuxin Jin,  Hanjie Jiang,  
 Subrata Jana,  B. Kaduk,  S. Kaehler,  Richard Kang,  K. Khistyaev,  
 Jaehoon Kim,  Yongbin Kim,  P. Klunzinger,  Z. Koczor-Benda,  
 Joong Hoon Koh,  Elena Kolodzeiski,  D. Kosenkov,  Saikiran Kotaru,  
 L. Koulias,  T. Kowalczyk,  C. M. Krauter,  K. Kue,  A. Kunitsa,  T. Kus,  
 A. Landau,  C. W. Lander,  K. V. Lawler,  D. Lefrancois,  S. Lehtola,  
 Rain Li,  Shaozhi Li,  Tao E. Li,  Yi-Pei Li,  Jiashu Liang,  M. Liebenthal,  
 Hung-Hsuan Lin,  You-Sheng Lin,  Fenglai Liu,  Kuan-Yu Liu,  Xiao Liu,  
 M. Loipersberger,  A. Luenser,  C. Malbon,  Aniket Mandal,  Manisha,  
 A. Manjanath,  P. Manohar,  E. Mansoor,  S. F. Manzer,  Shan-Ping Mao,  
 A. V. Marenich,  T. Markovich,  S. Mason,  F. Matz,  S. A. Maurer,  
 Samuel May,  Alexandra McIsaac,  P. F. McLaughlin,  M. F. S. J. Menger,  
 J.-M. Mewes,  S. A. Mewes,  R. E. Moorby,  P. Morgante,  
 Mohammad Mostafanejad,  Madhubani Mukherjee,  J. W. Mullinax,  Quyen Nguyen,  
 Avik Kumar Ojha,  K. J. Oosterbaan,  Eno Paenurk,  Xiaoliang Pan,  G. Paran,  
 V. Parravicini,  R. L. Patterson,  Alexander C. Paul,  Suranjan K. Paul,  
 F. Pavosevic,  Zheng Pei,  P. Pokhilko,  S. Prager,  E. I. Proynov,  
 E. Ramos,  B. Rana,  A. E. Rask,  A. Rettig,  R. M. Richard,  F. Rob,  
 E. Rossomme,  S. Roy,  T. Scheele,  M. Scheurer,  M. Schneider,  
 P. E. Schneider,  Tim K. Schramm,  N. Sergueev,  S. M. Sharada,  
 Hengyuan Shen,  W. Skomorowski,  D. W. Small,  C. J. Stein,  
 Alistair J. Sterling,  Yingli Su,  Yu-Chuan Su,  E. J. Sundstrom,  
 J. Talbot,  J. A. Tan,  Zhen Tao,  Hung-Hsuan Teh,  J. Thirman,  C. Titeca,  
 N. Tkachenko,  Hung-Yi Tsai,  T. Tsuchimochi,  N. M. Tubman,  C. Utku,  
 S. P. Veccham,  O. Vydrov,  Z. Wang,  Markus G. S. Weiss,  Rahel Weiss,  
 J. Wenzel,  Jonathan Wong,  J. Witte,  H. Wu,  Yanze Wu,  A. Yamada,  
 Chou-Hsun Yang,  Kun Yao,  S. Yeganeh,  S. R. Yost,  Qi Yu,  A. Zech,  
 F. Zeller,  Chongxiao Zhao,  T. Zhao,  Igor Ying Zhang,  Xing Zhang,  
 Yu Zhang,  Zeyi Zhang,  D. Zuev,  A. Aspuru-Guzik,  A. T. Bell,  
 N. A. Besley,  K. B. Bravaya,  B. R. Brooks,  D. Casanova,  Jeng-Da Chai,  
 Hsing-Ta Chen,  S. Coriani,  C. J. Cramer,  A. E. DePrince, III,  
 R. A. DiStasio Jr.,  A. Dreuw,  B. D. Dunietz,  T. R. Furlani,  
 W. A. Goddard III,  S. Grimme,  S. Hammes-Schiffer,  T. Head-Gordon,  
 W. J. Hehre,  Chao-Ping Hsu,  T.-C. Jagau,  Yousung Jung,  A. Klamt,  
 Jing Kong,  D. S. Lambrecht,  Xiangyuan Li,  WanZhen Liang,  N. J. Mayhall,  
 C. W. McCurdy,  J. B. Neaton,  T. Neudecker,  C. Ochsenfeld,  
 J. A. Parkhill,  R. Peverati,  V. A. Rassolov,  Haisheng Ren,  Yihan Shao,  
 L. V. Slipchenko,  R. P. Steele,  J. E. Subotnik,  A. J. W. Thom,  
 A. Tkatchenko,  D. G. Truhlar,  T. Van Voorhis,  Fan Wang,  
 T. A. Wesolowski,  K. B. Whaley,  H. L. Woodcock III,  P. M. Zimmerman,  
 S. Faraji,  P. M. W. Gill,  M. Head-Gordon,  J. M. Herbert,  A. I. Krylov

 Contributors to earlier versions of Q-Chem not listed above: 
 R. D. Adamson,  B. Austin,  R. Baer,  J. Baker,  G. J. O. Beran,  
 K. Brandhorst,  S. T. Brown,  E. F. C. Byrd,  Arup K. Chakraborty,  
 G. K. L. Chan,  Chun-Min Chang,  Yunqing Chen,  C.-L. Cheng,  
 Siu Hung Chien,  D. M. Chipman,  D. L. Crittenden,  H. Dachsel,  
 R. J. Doerksen,  A. D. Dutoi,  R. G. Edgar,  J. Fosso-Tande,  
 L. Fusti-Molnar,  D. Ghosh,  A. Ghysels,  A. Golubeva-Zadorozhnaya,  
 J. Gonthier,  M. S. Gordon,  S. R. Gwaltney,  G. Hawkins,  J. E. Herr,  
 A. Heyden,  S. Hirata,  E. G. Hohenstein,  G. Kedziora,  F. J. Keil,  
 C. Kelley,  Jihan Kim,  R. A. King,  R. Z. Khaliullin,  P. P. Korambath,  
 W. Kurlancheek,  A. Laurent,  A. M. Lee,  M. S. Lee,  S. V. Levchenko,  
 Ching Yeh Lin,  D. Liotard,  E. Livshits,  R. C. Lochan,  I. Lotan,  
 L. A. Martinez-Martinez,  P. E. Maslen,  N. Nair,  D. P. O'Neill,  
 D. Neuhauser,  E. Neuscamman,  C. M. Oana,  R. Olivares-Amaya,  R. Olson,  
 T. M. Perrine,  B. Peters,  P. A. Pieniazek,  A. Prociuk,  Y. M. Rhee,  
 J. Ritchie,  M. A. Rohrdanz,  E. Rosta,  N. J. Russ,  H. F. Schaefer III,  
 M. W. Schmidt,  N. E. Schultz,  S. Sharma,  N. Shenvi,  C. D. Sherrill,  
 A. C. Simmonett,  A. Sodt,  T. Stein,  D. Stuck,  K. S. Thanthiriwatte,  
 V. Vanovschi,  L. Vogt,  Tao Wang,  A. Warshel,  M. A. Watson,  
 C. F. Williams,  Q. Wu,  X. Xu,  Jun Yang,  W. Zhang,  Yan Zhao

   Please cite Q-Chem as follows:
  "Software for the frontiers of quantum chemistry:
   An overview of developments in the Q-Chem 5 package"
   J. Chem. Phys. 155, 084801 (2021)
   https://doi.org/10.1063/5.0055522 (open access)

 Q-Chem 6.4.0 for Intel X86 EM64T Linux

 Parts of Q-Chem use Armadillo 12.8.2 (Cortisol Injector).
 http://arma.sourceforge.net/

 Q-Chem begins on Tue Feb  3 21:51:16 2026  

 Host: orc29
0

 Scratch files written to /scratch/bibhas/qchem18072//
 Executable: /qcsoftware/qchem_latest/exe/qcprog.exe
 Number of threads = 16
 Processing $rem in /qcsoftware/qchem_latest/config/preferences:
 Processing $rem in /home/users/bibhas/.qchemrc:
 Core orbitals will be frozen
 EOM-IP/EA analytic gradients are available only for UHF references
 Setting UNRESTRICTED=TRUE

 Checking the input file for inconsistencies... 	...done.

--------------------------------------------------------------
User input:
--------------------------------------------------------------
$molecule
-2 1
  C       0.1747567113    -0.5525970159     0.0000000000
  C      -1.1885861647     0.1134196937     0.0000000000
  O       1.0652300038     0.4630767603     0.0000000000
  H       0.2373119118    -1.2334227146    -0.8847443480
  H       0.2373119118    -1.2334227146     0.8847443480
  H      -1.4135297491     0.6754648515    -0.9072821767
  H      -1.4135297491     0.6754648515     0.9072821767
$end

$rem
   BASIS  =  cc-pVTZ
   IP_STATES  =  [0, 1]
   CC_STATE_TO_OPT  =  [2, 1]  
   GUI  =  2
   JOB_TYPE  =  OPT
   MEM_TOTAL  =  200000
   METHOD  =  EOM-CCSD
   SCF_CONVERGENCE  =  8
$end

--------------------------------------------------------------
 ----------------------------------------------------------------
             Standard Nuclear Orientation (Angstroms)
    I     Atom           X                Y                Z
 ----------------------------------------------------------------
    1      C       0.1687156883    -0.5514175488    -0.0000000000
    2      C      -1.1916648847     0.1206291397     0.0000000000
    3      O       1.0636773763     0.4603035004    -0.0000000000
    4      H       0.2282557666    -1.2325135510    -0.8847443480
    5      H       0.2282557666    -1.2325135510     0.8847443480
    6      H      -1.4141176827     0.6836647765    -0.9072821767
    7      H      -1.4141176827     0.6836647765     0.9072821767
 ----------------------------------------------------------------
 Molecular Point Group                 Cs    NOp =  2
 Largest Abelian Subgroup              Cs    NOp =  2
 Nuclear Repulsion Energy =          68.44188815 hartrees
 There are       13 alpha and       13 beta electrons
 Requested basis set is cc-pVTZ
 There are 54 shells and 146 basis functions
 Total memory of 200000 MB is distributed as follows: 
   MEM_STATIC is set to 192 MB
   QALLOC/CCMAN JOB total memory use is  199808 MB
 Warning: actual memory use might exceed 200000 MB

 Total QAlloc Memory Limit 200000 MB
 Mega-Array Size       188 MB
 MEM_STATIC part       192 MB

 -----------------------------------------------------------------------
                STARTING GEOMETRY OPTIMIZER USING LIBOPT3
                by Peter F. McLaughlin, Yu Zhang, Evgeny Epifanovsky
 -----------------------------------------------------------------------

              Initial Energy and Gradient Calculation
   -- Checking Topology for Ill-Behaving Coordinates --

 -------------------------------------------
   Coordinate       |  Removed | Additions 
 -------------------------------------------
	Bonds                     0          0
	Angles                    0          0
	Torsions                  0          0
	Co-Linear Type5s          0          0
	Co-Linear Type6s          0          0
 -------------------------------------------
     Done Checking Topology
 ----------------------------------------------------------------
             Standard Nuclear Orientation (Angstroms)
    I     Atom           X                Y                Z
 ----------------------------------------------------------------
    1      C       0.1687156883    -0.5514175488     0.0000000000
    2      C      -1.1916648847     0.1206291397    -0.0000000000
    3      O       1.0636773763     0.4603035004    -0.0000000000
    4      H       0.2282557666    -1.2325135510    -0.8847443480
    5      H       0.2282557666    -1.2325135510     0.8847443480
    6      H      -1.4141176827     0.6836647765    -0.9072821767
    7      H      -1.4141176827     0.6836647765     0.9072821767
 ----------------------------------------------------------------
 Molecular Point Group                 Cs    NOp =  2
 Largest Abelian Subgroup              Cs    NOp =  2
 Nuclear Repulsion Energy =          68.44188815 hartrees
 There are       13 alpha and       13 beta electrons

                       Distance Matrix (Angstroms)
             C (  1)   C (  2)   O (  3)   H (  4)   H (  5)   H (  6)
   C (  2)  1.517327
   O (  3)  1.350754  2.280778
   H (  4)  1.118128  2.151730  2.084786
   H (  5)  1.118128  2.151730  2.084786  1.769489
   H (  6)  2.203168  1.090713  2.648116  2.523814  3.095237
   H (  7)  2.203168  1.090713  2.648116  3.095237  2.523814  1.814564


 Requested basis set is cc-pVTZ
 There are 54 shells and 146 basis functions
 A cutoff of  1.0D-14 yielded   1484 shell pairs
 There are     10944 function pairs (     14030 Cartesian)
 Smallest overlap matrix eigenvalue = 1.24E-03

 Scale SEOQF with 1.000000e-01/1.000000e+00/1.000000e+00

 Standard Electronic Orientation quadrupole field applied
 Nucleus-field energy     =     0.0000000028 hartrees
 Guess from superposition of atomic densities
 Warning:  Energy on first SCF cycle will be non-variational
 SAD guess density has 24.000000 electrons

 -----------------------------------------------------------------------
  General SCF calculation program by
  Eric Jon Sundstrom, Paul Horn, Yuezhi Mao, Dmitri Zuev, Alec White,
  David Stuck, Shaama M.S., Shane Yost, Joonho Lee, David Small,
  Daniel Levine, Susi Lehtola, Hugh Burton, Evgeny Epifanovsky,
  Bang C. Huynh
 -----------------------------------------------------------------------
 Hartree-Fock
 using 16 threads for integral computing
 -------------------------------------------------------
 OpenMP Integral computing Module                
 Release: version 1.0, May 2013, Q-Chem Inc. Pittsburgh 
 -------------------------------------------------------
 A unrestricted SCF calculation will be
 performed using DIIS
 SCF converges when DIIS error is below 1.0e-08
 User-specified cutoff of 10e-14
 used for neglect of 2-electron integrals.
 A cutoff of 10e-14
 used for neglect of overlap integrals.
 Incremental Fock algorithm is on at the start.
 ---------------------------------------
  Cycle       Energy         DIIS error
 ---------------------------------------
    1    -153.2041347240      1.84e-02  
    2    -152.3825934000      4.25e-03  
    3    -152.5124315371      3.01e-03  
    4    -152.5854126178      3.02e-04  
    5    -152.5867035653      1.43e-04  
    6    -152.5870078993      3.45e-05  
    7    -152.5870473559      1.21e-05  
    8    -152.5870569615      6.08e-06  
    9    -152.5870604543      3.01e-06  
   10    -152.5870615409      1.12e-06  
   11    -152.5870616863      3.18e-07  
   12    -152.5870616941      8.93e-08  
   13    -152.5870616947      2.31e-08  
   14    -152.5870616947      7.85e-09  Convergence criterion met
 ---------------------------------------
 SCF time:   CPU 39.75s  wall 4.00s 
<S^2> =          0.000000000
 SCF   energy =  -152.58706169
 Total energy =  -152.58706169


 ------------------------------------------------------------------------------

   CCMAN2: suite of methods based on coupled cluster
           and equation of motion theories.

   Components:
   * libvmm-1.3-trunk
     by Evgeny Epifanovsky, Ilya Kaliman.
   * libtensor-2.5-trunk
     by Evgeny Epifanovsky, Michael Wormit, Dmitry Zuev, Sam Manzer, 
        Ilya Kaliman.
   * libcc-2.5-trunk
     by Evgeny Epifanovsky, Arik Landau, Tomasz Kus, Kirill Khistyaev, 
        Dmitry Zuev, Prashant Manohar, Xintian Feng, Anna Krylov, 
        Matthew Goldey, Alec White, Thomas Jagau, Kaushik Nanda, 
        Anastasia Gunina, Alexander Kunitsa, Joonho Lee.

   CCMAN original authors:
   Anna I. Krylov, C. David Sherrill, Steven R. Gwaltney,
   Edward F. C. Byrd (2000)
   Sergey V. Levchenko, Lyudmila V. Slipchenko, Tao Wang,
   Ana-Maria C. Cristian (2003)
   Piotr A. Pieniazek, C. Melania Oana, Evgeny Epifanovsky (2007)
   Prashant Manohar (2009)

 ------------------------------------------------------------------------------


 Allocating and initializing 199808MB of RAM (this may take a while)...
 Calculation will run on 16 cores.


 Alpha MOs, Unrestricted
 -- Occupied --                  
-19.966 -10.810 -10.695  -0.777  -0.465  -0.322  -0.158  -0.091
  1 A'    2 A'    3 A'    4 A'    5 A'    6 A'    1 A"    7 A'                 
 -0.049  -0.036   0.101   0.106   0.217
  8 A'    2 A"    9 A'    3 A"   10 A'                                         
 -- Virtual --                   
  0.519   0.540   0.553   0.612   0.715   0.763   0.793   0.859
 11 A'   12 A'    4 A"    5 A"   13 A'   14 A'   15 A'    6 A"                 
  0.902   0.947   1.003   1.025   1.035   1.062   1.097   1.110
  7 A"   16 A'    8 A"   17 A'   18 A'   19 A'   20 A'   21 A'                 
  1.135   1.180   1.244   1.272   1.316   1.369   1.394   1.417
  9 A"   22 A'   10 A"   23 A'   24 A'   11 A"   12 A"   25 A'                 
  1.456   1.560   1.638   1.643   1.673   1.710   1.733   1.760
 26 A'   13 A"   14 A"   27 A'   15 A"   28 A'   29 A'   16 A"                 
  1.762   1.816   1.846   1.907   1.920   1.928   1.973   2.075
 30 A'   31 A'   32 A'   17 A"   18 A"   33 A'   19 A"   20 A"                 
  2.101   2.133   2.243   2.379   2.499   2.507   2.729   2.815
 34 A'   35 A'   36 A'   37 A'   38 A'   21 A"   39 A'   22 A"                 
  2.863   2.954   3.011   3.076   3.095   3.202   3.220   3.275
 40 A'   23 A"   41 A'   42 A'   43 A'   44 A'   24 A"   45 A'                 
  3.327   3.441   3.506   3.522   3.613   3.620   3.660   3.727
 25 A"   46 A'   26 A"   47 A'   48 A'   27 A"   28 A"   29 A"                 
  3.765   3.771   3.772   3.859   3.874   3.914   3.930   3.975
 49 A'   30 A"   50 A'   31 A"   51 A'   52 A'   32 A"   33 A"                 
  3.998   4.021   4.026   4.106   4.142   4.198   4.213   4.260
 53 A'   34 A"   54 A'   55 A'   35 A"   56 A'   36 A"   37 A"                 
  4.292   4.327   4.400   4.475   4.532   4.567   4.594   4.654
 57 A'   38 A"   58 A'   59 A'   39 A"   60 A'   61 A'   40 A"                 
  4.697   4.707   4.724   4.779   4.793   4.837   4.949   4.966
 62 A'   63 A'   41 A"   64 A'   42 A"   65 A'   66 A'   43 A"                 
  4.981   5.070   5.135   5.182   5.271   5.383   5.433   5.447
 67 A'   44 A"   68 A'   69 A'   45 A"   70 A'   46 A"   71 A'                 
  5.587   5.611   5.689   5.801   5.835   5.838   5.848   5.999
 47 A"   72 A'   48 A"   73 A'   49 A"   74 A'   50 A"   75 A'                 
  6.020   6.127   6.222   6.229   6.243   6.335   6.488   6.558
 76 A'   77 A'   51 A"   78 A'   52 A"   79 A'   53 A"   80 A'                 
  6.685   6.785   6.993   7.082   7.128   7.480   7.500   7.946
 54 A"   55 A"   81 A'   82 A'   56 A"   83 A'   57 A"   84 A'                 
  7.958   8.044  11.199  12.616  13.560
 58 A"   85 A'   86 A'   87 A'   88 A'                                         

 Beta MOs, Unrestricted
 -- Occupied --                  
-19.966 -10.810 -10.695  -0.777  -0.465  -0.322  -0.158  -0.091
  1 A'    2 A'    3 A'    4 A'    5 A'    6 A'    1 A"    7 A'                 
 -0.049  -0.036   0.101   0.106   0.217
  8 A'    2 A"    9 A'    3 A"   10 A'                                         
 -- Virtual --                   
  0.519   0.540   0.553   0.612   0.715   0.763   0.793   0.859
 11 A'   12 A'    4 A"    5 A"   13 A'   14 A'   15 A'    6 A"                 
  0.902   0.947   1.003   1.025   1.035   1.062   1.097   1.110
  7 A"   16 A'    8 A"   17 A'   18 A'   19 A'   20 A'   21 A'                 
  1.135   1.180   1.244   1.272   1.316   1.369   1.394   1.417
  9 A"   22 A'   10 A"   23 A'   24 A'   11 A"   12 A"   25 A'                 
  1.456   1.560   1.638   1.643   1.673   1.710   1.733   1.760
 26 A'   13 A"   14 A"   27 A'   15 A"   28 A'   29 A'   16 A"                 
  1.762   1.816   1.846   1.907   1.920   1.928   1.973   2.075
 30 A'   31 A'   32 A'   17 A"   18 A"   33 A'   19 A"   20 A"                 
  2.101   2.133   2.243   2.379   2.499   2.507   2.729   2.815
 34 A'   35 A'   36 A'   37 A'   38 A'   21 A"   39 A'   22 A"                 
  2.863   2.954   3.011   3.076   3.095   3.202   3.220   3.275
 40 A'   23 A"   41 A'   42 A'   43 A'   44 A'   24 A"   45 A'                 
  3.327   3.441   3.506   3.522   3.613   3.620   3.660   3.727
 25 A"   46 A'   26 A"   47 A'   48 A'   27 A"   28 A"   29 A"                 
  3.765   3.771   3.772   3.859   3.874   3.914   3.930   3.975
 49 A'   30 A"   50 A'   31 A"   51 A'   52 A'   32 A"   33 A"                 
  3.998   4.021   4.026   4.106   4.142   4.198   4.213   4.260
 53 A'   34 A"   54 A'   55 A'   35 A"   56 A'   36 A"   37 A"                 
  4.292   4.327   4.400   4.475   4.532   4.567   4.594   4.654
 57 A'   38 A"   58 A'   59 A'   39 A"   60 A'   61 A'   40 A"                 
  4.697   4.707   4.724   4.779   4.793   4.837   4.949   4.966
 62 A'   63 A'   41 A"   64 A'   42 A"   65 A'   66 A'   43 A"                 
  4.981   5.070   5.135   5.182   5.271   5.383   5.433   5.447
 67 A'   44 A"   68 A'   69 A'   45 A"   70 A'   46 A"   71 A'                 
  5.587   5.611   5.689   5.801   5.835   5.838   5.848   5.999
 47 A"   72 A'   48 A"   73 A'   49 A"   74 A'   50 A"   75 A'                 
  6.020   6.127   6.222   6.229   6.243   6.335   6.488   6.558
 76 A'   77 A'   51 A"   78 A'   52 A"   79 A'   53 A"   80 A'                 
  6.685   6.785   6.993   7.082   7.128   7.480   7.500   7.946
 54 A"   55 A"   81 A'   82 A'   56 A"   83 A'   57 A"   84 A'                 
  7.958   8.044  11.199  12.616  13.560
 58 A"   85 A'   86 A'   87 A'   88 A'                                         

 Occupation and symmetry of molecular orbitals

 Point group: Cs (2 irreducible representations).

                           A'   A"    All 
 ------------------------------------------
 All molecular orbitals:
  - Alpha                  88   58    146 
  - Beta                   88   58    146 
 ------------------------------------------
 Alpha orbitals:
  - Frozen occupied        3    0     3   
  - Active occupied        7    3     10  
  - Active virtual         78   55    133 
  - Frozen virtual         0    0     0   
 ------------------------------------------
 Beta orbitals:
  - Frozen occupied        3    0     3   
  - Active occupied        7    3     10  
  - Active virtual         78   55    133 
  - Frozen virtual         0    0     0   
 ------------------------------------------

 Import integrals:   CPU 0.00 s  wall 0.00 s

 Import integrals:   CPU 74.43 s  wall 8.01 s


 MP2  CPU 0.68 s  wall 0.09 s
Running a double precision version
           CCSD T amplitudes will be solved using DIIS.

           Start     Size      MaxIter   EConv     TConv     
           3         7         100       1.00e-07  1.00e-05  
 ------------------------------------------------------------------------------
           Energy (a.u.)   Ediff      Tdiff       Comment
 ------------------------------------------------------------------------------
          -153.21273681                           
     1    -153.21055707   2.18e-03   7.26e-01     
     2    -153.22757438   1.70e-02   8.80e-02     
     3    -153.22710147   4.73e-04   3.02e-02     
     4    -153.22853309   1.43e-03   1.95e-02     Switched to DIIS steps.
     5    -153.22930409   7.71e-04   7.46e-03     
     6    -153.22937596   7.19e-05   2.36e-03     
     7    -153.22940281   2.68e-05   2.12e-03     
     8    -153.22941597   1.32e-05   9.82e-04     
     9    -153.22942410   8.13e-06   6.86e-04     
    10    -153.22942587   1.77e-06   2.95e-04     
    11    -153.22942688   1.00e-06   1.53e-04     
    12    -153.22942642   4.52e-07   7.93e-05     
    13    -153.22942589   5.36e-07   2.26e-05     
    14    -153.22942583   5.50e-08   1.11e-05     
    15    -153.22942565   1.77e-07   6.52e-06     
    16    -153.22942563   2.61e-08   3.04e-06     
 ------------------------------------------------------------------------------
          -153.22942563                           CCSD T converged.

 End of double precision
 SCF energy                 = -152.58706169
 MP2 energy                 = -153.21273681
 CCSD correlation energy    =   -0.64236393
 CCSD total energy          = -153.22942563

 CCSD  T1^2 = 0.0128  T2^2 = 0.2120  Leading amplitudes:

 Amplitude    Orbitals with energies
  0.0329       10 (A') A                 ->    11 (A') A                  
               0.2168                          0.5191                     
  0.0329       10 (A') B                 ->    11 (A') B                  
               0.2168                          0.5191                     
 -0.0263       10 (A') A                 ->    12 (A') A                  
               0.2168                          0.5398                     
 -0.0263       10 (A') B                 ->    12 (A') B                  
               0.2168                          0.5398                     

 Amplitude    Orbitals with energies
 -0.0478       10 (A') A     10 (A') B   ->    16 (A') A     16 (A') B    
               0.2168        0.2168            0.9468        0.9468       
  0.0478       10 (A') A     10 (A') B   ->    16 (A') B     16 (A') A    
               0.2168        0.2168            0.9468        0.9468       
  0.0478       10 (A') B     10 (A') A   ->    16 (A') A     16 (A') B    
               0.2168        0.2168            0.9468        0.9468       
 -0.0478       10 (A') B     10 (A') A   ->    16 (A') B     16 (A') A    
               0.2168        0.2168            0.9468        0.9468       

 Computing CCSD intermediates for later calculations in double precision
 Finished.


 CCSD  CPU 370.88 s  wall 31.34 s

 EOMEE-CCSD  CPU 1.65 s  wall 0.22 s
        Solving for EOMIP-CCSD A" transitions.

Running a double precision version
      EOMIP-CCSD/MP2 right amplitudes will be solved using Davidson.
        Amplitudes will be solved using standard  algorithm.
     Hard-coded thresholds: 
     LinDepThresh=1.00e-15  NormThresh=1.00e-06  ReorthogonThresh=1.00e-02

      Roots     MaxVec    MaxIter   Precond   Conv      Shift    
      1         120       60        1         1.00e-06  0.00e+00  
 ------------------------------------------------------------------------------
      Iter ConvRoots NVecs ResNorm^2 Current eigenvalues (eV)
 ------------------------------------------------------------------------------
      0    0      1     2.02e-01   -0.7069   
      1    0      2     1.07e-01   -3.2178   
      2    0      3     1.76e-03   -4.2419   
      3    0      4     1.69e-04   -4.2901   
      4    0      5     2.42e-05   -4.2889   
      5    0      6     2.31e-06   -4.2902   
      6    1      7     3.78e-07   -4.2904*  

     Davidson procedure converged

 EOMIP transition 1/A"
 Total energy = -153.38709400 a.u.  Excitation energy = -4.2904 eV.
 R1^2 = 0.9241  R2^2 = 0.0759  Res^2 = 3.78e-07
 Conv-d = yes

 Amplitude    Transitions between orbitals
 -0.9575       3 (A") A                  ->    infty        
 -0.0645       2 (A") A                  ->    infty        
 -0.0560       1 (A") A                  ->    infty        

              Summary of significant orbitals:

               Number  Type             Irrep      Energy
               7       Occ  Alpha       1 (A")     -0.1579
               10      Occ  Alpha       2 (A")     -0.0363
               12      Occ  Alpha       3 (A")      0.1055


Running a double precision version
      EOMIP-CCSD/MP2 left amplitudes will be solved using Davidson.
        Amplitudes will be solved using MOM  algorithm.
     Hard-coded thresholds: 
     LinDepThresh=1.00e-15  NormThresh=1.00e-06  ReorthogonThresh=1.00e-02

      Roots     MaxVec    MaxIter   Precond   Conv      Shift    
      1         120       60        1         1.00e-06  0.00e+00  
 ------------------------------------------------------------------------------
      Iter ConvRoots NVecs ResNorm^2 Current eigenvalues (eV)
 ------------------------------------------------------------------------------
      0    0      1     9.05e-03   -4.2904   
      1    0      2     3.30e-03   -4.2903   
      2    0      3     7.60e-05   -4.2903   
      3    0      4     6.45e-06   -4.2903   
      4    1      5     4.24e-07   -4.2903*  

     Davidson procedure converged

Running a double precision version
           EOM amplitude response will be solved using DIIS.
           Start     Size      MaxIter   EConv     ZConv     
           3         7         100       1.00e-06  1.00e-06  
 ------------------------------------------------------------------------------
            Enorm      Zdiff       Comment
 ------------------------------------------------------------------------------
     1     7.21e-02   4.75e-02     
     2     2.65e-02   1.66e-02     
     3     1.47e-02   6.93e-03     
     4     6.18e-03   6.38e-03     Switched to DIIS steps.
     5     4.24e-03   1.99e-03     
     6     2.30e-03   1.71e-03     
     7     1.21e-03   9.42e-04     
     8     6.41e-04   6.39e-04     
     9     3.06e-04   1.37e-04     
    10     1.57e-04   8.92e-05     
    11     5.91e-05   3.42e-07     
    12     2.69e-05   6.98e-06     
    13     1.32e-05   6.17e-07     
    14     7.19e-06   2.59e-06     
    15     4.31e-06   1.35e-06     
    16     2.50e-06   5.28e-07     
    17     1.45e-06   1.15e-07     
    18     7.24e-07   2.30e-07     
 ------------------------------------------------------------------------------
                                   Amplitude response converged.

           Orbital response amplitudes will be solved using DIIS.
           Start     Size      MaxIter   EConv     LConv     
           3         7         100       1.00e-06  1.00e-06  
 ------------------------------------------------------------------------------
            Enorm      Ldiff       Comment
 ------------------------------------------------------------------------------
     1     3.31e-01   1.53e-01     
     2     3.28e-01   1.13e-01     
     3     4.31e-01   2.13e-01     
     4     1.16e-02   2.07e-01     Switched to DIIS steps.
     5     7.42e-03   4.07e-03     
     6     3.32e-03   2.39e-03     
     7     1.34e-03   1.72e-04     
     8     7.90e-04   2.97e-04     
     9     2.47e-04   1.89e-04     
    10     1.24e-04   5.95e-05     
    11     6.53e-05   9.09e-06     
    12     2.55e-05   5.07e-06     
    13     1.23e-05   2.38e-06     
    14     7.51e-06   1.13e-06     
    15     2.33e-06   1.95e-06     
    16     1.54e-06   3.86e-07     
    17     7.61e-07   4.21e-07     
 ------------------------------------------------------------------------------
                                   Orbital response converged.


 EOMIP-CCSD  CPU 432.31 s  wall 38.76 s
 Transferring MO TPDM to AO TPDM
 Transferring g2_o1o1o1o1
 Transferring g2_o1o1o1v1
 Transferring g2_o1o1v1v1
 Transferring g2_o1v1o1v1
 Transferring g2_o1v1v1v1
 Transferring g2_v1v1v1v1
 Adding separable TPDM
 Computing TPDM gradient
 --------------------------------------------------------
 2e gradient
  Atom          X               Y               Z
 --------------------------------------------------------
    1         -1.087138        4.621103       -0.000000  
    2          5.691483        0.535877        0.000000  
    3         -7.369266       -7.149697       -0.000000  
    4          0.137422        2.080135        2.227932  
    5          0.137422        2.080135       -2.227932  
    6          1.245038       -1.083777        2.010196  
    7          1.245038       -1.083777       -2.010196  
 --------------------------------------------------------
 --------------------------------------------------------
 Final gradient
  Atom          X               Y               Z
 --------------------------------------------------------
    1         -1.087138        4.621103       -0.000000  
    2          5.691483        0.535877        0.000000  
    3         -7.369266       -7.149697       -0.000000  
    4          0.137422        2.080135        2.227932  
    5          0.137422        2.080135       -2.227932  
    6          1.245038       -1.083777        2.010196  
    7          1.245038       -1.083777       -2.010196  
 --------------------------------------------------------
 Gradient  CPU 540.11 s  wall 49.28 s
 Total ccman2 time:   CPU 1516.91 s  wall 136.42 s


 --------------------------------------------------------------
             Orbital Energies (a.u.) and Symmetries
 --------------------------------------------------------------

 Alpha MOs, Unrestricted
 -- Occupied --                  
-19.966 -10.810 -10.695  -0.777  -0.465  -0.322  -0.091  -0.049
  1 A'    2 A'    3 A'    4 A'    5 A'    6 A'    7 A'    8 A'                 
  0.101   0.217  -0.158  -0.036   0.106
  9 A'   10 A'    1 A"    2 A"    3 A"                                         
 -- Virtual --                   
  0.519   0.540   0.715   0.763   0.793   0.947   1.025   1.035
 11 A'   12 A'   13 A'   14 A'   15 A'   16 A'   17 A'   18 A'                 
  1.062   1.097   1.110   1.180   1.272   1.316   1.417   1.456
 19 A'   20 A'   21 A'   22 A'   23 A'   24 A'   25 A'   26 A'                 
  1.643   1.710   1.733   1.762   1.816   1.846   1.928   2.101
 27 A'   28 A'   29 A'   30 A'   31 A'   32 A'   33 A'   34 A'                 
  2.133   2.243   2.379   2.499   2.729   2.863   3.011   3.076
 35 A'   36 A'   37 A'   38 A'   39 A'   40 A'   41 A'   42 A'                 
  3.095   3.202   3.275   3.441   3.522   3.613   3.765   3.772
 43 A'   44 A'   45 A'   46 A'   47 A'   48 A'   49 A'   50 A'                 
  3.874   3.914   3.998   4.026   4.106   4.198   4.292   4.400
 51 A'   52 A'   53 A'   54 A'   55 A'   56 A'   57 A'   58 A'                 
  4.475   4.567   4.594   4.697   4.707   4.779   4.837   4.949
 59 A'   60 A'   61 A'   62 A'   63 A'   64 A'   65 A'   66 A'                 
  4.981   5.135   5.182   5.383   5.447   5.611   5.801   5.838
 67 A'   68 A'   69 A'   70 A'   71 A'   72 A'   73 A'   74 A'                 
  5.999   6.020   6.127   6.229   6.335   6.558   6.993   7.082
 75 A'   76 A'   77 A'   78 A'   79 A'   80 A'   81 A'   82 A'                 
  7.480   7.946   8.044  11.199  12.616  13.560   0.553   0.612
 83 A'   84 A'   85 A'   86 A'   87 A'   88 A'    4 A"    5 A"                 
  0.859   0.902   1.003   1.135   1.244   1.369   1.394   1.560
  6 A"    7 A"    8 A"    9 A"   10 A"   11 A"   12 A"   13 A"                 
  1.638   1.673   1.760   1.907   1.920   1.973   2.075   2.507
 14 A"   15 A"   16 A"   17 A"   18 A"   19 A"   20 A"   21 A"                 
  2.815   2.954   3.220   3.327   3.506   3.620   3.660   3.727
 22 A"   23 A"   24 A"   25 A"   26 A"   27 A"   28 A"   29 A"                 
  3.771   3.859   3.930   3.975   4.021   4.142   4.213   4.260
 30 A"   31 A"   32 A"   33 A"   34 A"   35 A"   36 A"   37 A"                 
  4.327   4.532   4.654   4.724   4.793   4.966   5.070   5.271
 38 A"   39 A"   40 A"   41 A"   42 A"   43 A"   44 A"   45 A"                 
  5.433   5.587   5.689   5.835   5.848   6.222   6.243   6.488
 46 A"   47 A"   48 A"   49 A"   50 A"   51 A"   52 A"   53 A"                 
  6.685   6.785   7.128   7.500   7.958
 54 A"   55 A"   56 A"   57 A"   58 A"                                         

 Beta MOs, Unrestricted
 -- Occupied --                  
-19.966 -10.810 -10.695  -0.777  -0.465  -0.322  -0.091  -0.049
  1 A'    2 A'    3 A'    4 A'    5 A'    6 A'    7 A'    8 A'                 
  0.101   0.217  -0.158  -0.036   0.106
  9 A'   10 A'    1 A"    2 A"    3 A"                                         
 -- Virtual --                   
  0.519   0.540   0.715   0.763   0.793   0.947   1.025   1.035
 11 A'   12 A'   13 A'   14 A'   15 A'   16 A'   17 A'   18 A'                 
  1.062   1.097   1.110   1.180   1.272   1.316   1.417   1.456
 19 A'   20 A'   21 A'   22 A'   23 A'   24 A'   25 A'   26 A'                 
  1.643   1.710   1.733   1.762   1.816   1.846   1.928   2.101
 27 A'   28 A'   29 A'   30 A'   31 A'   32 A'   33 A'   34 A'                 
  2.133   2.243   2.379   2.499   2.729   2.863   3.011   3.076
 35 A'   36 A'   37 A'   38 A'   39 A'   40 A'   41 A'   42 A'                 
  3.095   3.202   3.275   3.441   3.522   3.613   3.765   3.772
 43 A'   44 A'   45 A'   46 A'   47 A'   48 A'   49 A'   50 A'                 
  3.874   3.914   3.998   4.026   4.106   4.198   4.292   4.400
 51 A'   52 A'   53 A'   54 A'   55 A'   56 A'   57 A'   58 A'                 
  4.475   4.567   4.594   4.697   4.707   4.779   4.837   4.949
 59 A'   60 A'   61 A'   62 A'   63 A'   64 A'   65 A'   66 A'                 
  4.981   5.135   5.182   5.383   5.447   5.611   5.801   5.838
 67 A'   68 A'   69 A'   70 A'   71 A'   72 A'   73 A'   74 A'                 
  5.999   6.020   6.127   6.229   6.335   6.558   6.993   7.082
 75 A'   76 A'   77 A'   78 A'   79 A'   80 A'   81 A'   82 A'                 
  7.480   7.946   8.044  11.199  12.616  13.560   0.553   0.612
 83 A'   84 A'   85 A'   86 A'   87 A'   88 A'    4 A"    5 A"                 
  0.859   0.902   1.003   1.135   1.244   1.369   1.394   1.560
  6 A"    7 A"    8 A"    9 A"   10 A"   11 A"   12 A"   13 A"                 
  1.638   1.673   1.760   1.907   1.920   1.973   2.075   2.507
 14 A"   15 A"   16 A"   17 A"   18 A"   19 A"   20 A"   21 A"                 
  2.815   2.954   3.220   3.327   3.506   3.620   3.660   3.727
 22 A"   23 A"   24 A"   25 A"   26 A"   27 A"   28 A"   29 A"                 
  3.771   3.859   3.930   3.975   4.021   4.142   4.213   4.260
 30 A"   31 A"   32 A"   33 A"   34 A"   35 A"   36 A"   37 A"                 
  4.327   4.532   4.654   4.724   4.793   4.966   5.070   5.271
 38 A"   39 A"   40 A"   41 A"   42 A"   43 A"   44 A"   45 A"                 
  5.433   5.587   5.689   5.835   5.848   6.222   6.243   6.488
 46 A"   47 A"   48 A"   49 A"   50 A"   51 A"   52 A"   53 A"                 
  6.685   6.785   7.128   7.500   7.958
 54 A"   55 A"   56 A"   57 A"   58 A"                                         
 --------------------------------------------------------------

          Ground-State Mulliken Net Atomic Charges

     Atom                 Charge (a.u.)    Spin (a.u.)
  --------------------------------------------------------
      1 C                    -0.049904       0.121733
      2 C                    -0.849280      -0.005384
      3 O                    -0.257968      -0.939702
      4 H                     0.062285      -0.090262
      5 H                     0.062285      -0.090262
      6 H                     0.016290       0.001938
      7 H                     0.016290       0.001938
  --------------------------------------------------------
  Sum of atomic charges =    -1.000000
  Sum of spin   charges =    -1.000000

 -----------------------------------------------------------------
                    Cartesian Multipole Moments
 -----------------------------------------------------------------
    Charge (ESU x 10^10)
                -4.8032
    Dipole Moment (Debye)
         X       3.9929      Y      -1.0069      Z      -0.0000
       Tot       4.1179
    Quadrupole Moments (Debye-Ang)
        XX     -35.9381     XY      -2.4138     YY     -24.1466
        XZ      -0.0000     YZ       0.0000     ZZ     -21.1084
    Octopole Moments (Debye-Ang^2)
       XXX      27.9995    XXY       3.6666    XYY       5.6037
       YYY       0.1561    XXZ      -0.0000    XYZ       0.0000
       YYZ       0.0000    XZZ       5.7017    YZZ      -0.0782
       ZZZ       0.0000
    Hexadecapole Moments (Debye-Ang^3)
      XXXX    -205.7745   XXXY      -7.5242   XXYY     -41.7032
      XYYY       1.6031   YYYY     -68.2831   XXXZ       0.0000
      XXYZ      -0.0000   XYYZ      -0.0000   YYYZ       0.0000
      XXZZ     -34.7671   XYZZ       0.6175   YYZZ     -16.7905
      XZZZ       0.0000   YZZZ      -0.0000   ZZZZ     -39.4454
 -----------------------------------------------------------------
 DrvMan completing analytic gradient of the correlated energy
 Correlated dipole moment
            1
    1   1.5709423
    2  -0.3961645
    3   0.0000000
 Energy read as -153.387094000
 Full Analytical Gradient: (in a.u., or Hartree/Bohr)
             1             2             3             4             5
    1    0.08486341    0.03457748   -0.07959454   -0.01345469   -0.01345469
    2   -0.02398349    0.04827582   -0.00060256   -0.00798329   -0.00798329
    3   -0.00000000    0.00000000   -0.00000000   -0.00630173    0.00630173
             6             7
    1   -0.00646849   -0.00646849
    2   -0.00386159   -0.00386159
    3    0.00133821   -0.00133821
 Gradient time:  CPU 1.64 s  wall 1.59 s

 *****************************************************
             Starting BFGS Algorithm
 *****************************************************
            LIBOPT3 RUN PARAMETERS

  Geometry Optimization Coordinates :
	Delocalized Natural Internal Coordinates

  Step Length Selection Method :
	Eigenvector Following Algorithm

  Step Length Limiter :
	Root-Mean-Square of Gradient

  Convergence Criteria :
	Max Gradient Component    	3.00000000e-04
	Max Displacement Component	1.20000000e-03
	Absolute Energy Difference	1.00000000e-06

  Initial Hessian :
	Approximate Hessian - Model Internal Coordinate

  Type of Verification :
	Verify with final updated Hessian
 *****************************************************

	OPTIMIZATION CYCLE:	1





 Scaling Magnitude of Eigenvalues
 	Minimum: -25.00000000	 Maximum: 25.00000000
 15 Hessian Eigenvalues to form next step
   0.00688669   0.02763251   0.07842912   0.08197470   0.16000000
   0.16000000   0.16000000   0.16000000   0.22591162   0.30625456
   0.31754433   0.31754433   0.34730347   0.34730347   0.54861302


 Minimum Search taking a RFO step
 Searching for Lambda that minimizes along all modes
	Value of Lambda   -0.06280049
	Norm  of Stepsize  0.47352012
	RMS   of Stepsize  0.12226237

	Performing Iterative Coordinate Back-Transformation

	  Starting from Previous Position

	  iter:	0	rms: 1.5559308551e-01	maxdev: 5.2508159068e-01
	  iter:	1	rms: 1.9963008458e-02	maxdev: 7.2403053992e-02
	  iter:	2	rms: 2.1481765235e-05	maxdev: 5.7837990604e-05
	  iter:	3	rms: 0.0000000000e+00	maxdev: 0.0000000000e+00	 Success!

	Finished Iterative Coordinate Back-Transformation
 ----------------------------------------------------------------
             Standard Nuclear Orientation (Angstroms)
    I     Atom           X                Y                Z
 ----------------------------------------------------------------
    1      C       0.1323534696    -0.4633599721     0.0000000000
    2      C      -1.2830929669     0.0889687027     0.0000000000
    3      O       1.3037135072     0.2975158517     0.0000000000
    4      H       0.2455346605    -1.1571437089    -0.8531175466
    5      H       0.2455346605    -1.1571437089     0.8531175466
    6      H      -1.4875194916     0.6614901889    -0.9083613253
    7      H      -1.4875194916     0.6614901889     0.9083613253
 ----------------------------------------------------------------
 Molecular Point Group                 Cs    NOp =  2
 Largest Abelian Subgroup              Cs    NOp =  2
 Nuclear Repulsion Energy =          66.42758588 hartrees
 There are       13 alpha and       13 beta electrons

                       Distance Matrix (Angstroms)
             C (  1)   C (  2)   O (  3)   H (  4)   H (  5)   H (  6)
   C (  2)  1.519393
   O (  3)  1.396788  2.595199
   H (  4)  1.105421  2.148792  1.990876
   H (  5)  1.105421  2.148792  1.990876  1.706235
   H (  6)  2.171266  1.093019  2.957800  2.512759  3.068178
   H (  7)  2.171266  1.093019  2.957800  3.068178  2.512759  1.816723


 Applying Cartesian multipole field
    Component          Value
    ---------          -----
     (2,0,0)        1.00000E-11
     (0,2,0)        2.00000E-10
     (0,0,2)       -3.00000E-10
 Nucleus-field energy     = 1.6744481300e-09 hartrees
 Requested basis set is cc-pVTZ
 There are 54 shells and 146 basis functions
 A cutoff of  1.0D-14 yielded   1482 shell pairs
 There are     10938 function pairs (     14024 Cartesian)
 Smallest overlap matrix eigenvalue = 1.23E-03
 Guess MOs from SCF MO coefficient file

 -----------------------------------------------------------------------
  General SCF calculation program by
  Eric Jon Sundstrom, Paul Horn, Yuezhi Mao, Dmitri Zuev, Alec White,
  David Stuck, Shaama M.S., Shane Yost, Joonho Lee, David Small,
  Daniel Levine, Susi Lehtola, Hugh Burton, Evgeny Epifanovsky,
  Bang C. Huynh
 -----------------------------------------------------------------------
 Hartree-Fock
 A unrestricted SCF calculation will be
 performed using DIIS
 SCF converges when DIIS error is below 1.0e-08
 User-specified cutoff of 10e-14
 used for neglect of 2-electron integrals.
 A cutoff of 10e-14
 used for neglect of overlap integrals.
 Incremental Fock algorithm is on at the start.
 ---------------------------------------
  Cycle       Energy         DIIS error
 ---------------------------------------
    1    -152.5615871486      1.70e-03  
    2    -152.6001160251      5.21e-04  
    3    -152.6047656655      3.15e-04  
    4    -152.6059255310      8.02e-05  
    5    -152.6061158105      2.02e-05  
    6    -152.6061302955      7.80e-06  
    7    -152.6061326541      3.13e-06  
    8    -152.6061332084      1.17e-06  
    9    -152.6061333242      4.17e-07  
   10    -152.6061333415      1.20e-07  
   11    -152.6061333426      4.44e-08  
   12    -152.6061333427      1.26e-08  
   13    -152.6061333427      2.96e-09  Convergence criterion met
 ---------------------------------------
 SCF time:   CPU 50.41s  wall 5.00s 
<S^2> =          0.000000000
 SCF   energy =  -152.60613334
 Total energy =  -152.60613334


 ------------------------------------------------------------------------------

   CCMAN2: suite of methods based on coupled cluster
           and equation of motion theories.

   Components:
   * libvmm-1.3-trunk
     by Evgeny Epifanovsky, Ilya Kaliman.
   * libtensor-2.5-trunk
     by Evgeny Epifanovsky, Michael Wormit, Dmitry Zuev, Sam Manzer, 
        Ilya Kaliman.
   * libcc-2.5-trunk
     by Evgeny Epifanovsky, Arik Landau, Tomasz Kus, Kirill Khistyaev, 
        Dmitry Zuev, Prashant Manohar, Xintian Feng, Anna Krylov, 
        Matthew Goldey, Alec White, Thomas Jagau, Kaushik Nanda, 
        Anastasia Gunina, Alexander Kunitsa, Joonho Lee.

   CCMAN original authors:
   Anna I. Krylov, C. David Sherrill, Steven R. Gwaltney,
   Edward F. C. Byrd (2000)
   Sergey V. Levchenko, Lyudmila V. Slipchenko, Tao Wang,
   Ana-Maria C. Cristian (2003)
   Piotr A. Pieniazek, C. Melania Oana, Evgeny Epifanovsky (2007)
   Prashant Manohar (2009)

 ------------------------------------------------------------------------------


 Allocating and initializing 199808MB of RAM (this may take a while)...
 Calculation will run on 16 cores.


 Alpha MOs, Unrestricted
 -- Occupied --                  
-19.967 -10.808 -10.716  -0.755  -0.486  -0.323  -0.154  -0.075
  1 A'    2 A'    3 A'    4 A'    5 A'    6 A'    1 A"    7 A'                 
 -0.051  -0.048   0.108   0.113   0.176
  8 A'    2 A"    9 A'    3 A"   10 A'                                         
 -- Virtual --                   
  0.521   0.534   0.554   0.609   0.740   0.746   0.821   0.841
 11 A'   12 A'    4 A"    5 A"   13 A'   14 A'   15 A'    6 A"                 
  0.875   0.944   1.004   1.024   1.032   1.060   1.091   1.118
  7 A"   16 A'    8 A"   17 A'   18 A'   19 A'   20 A'   21 A'                 
  1.122   1.134   1.242   1.243   1.315   1.383   1.403   1.403
  9 A"   22 A'   23 A'   10 A"   24 A'   11 A"   25 A'   12 A"                 
  1.427   1.543   1.604   1.618   1.668   1.733   1.738   1.746
 26 A'   13 A"   27 A'   14 A"   15 A"   28 A'   29 A'   16 A"                 
  1.785   1.806   1.856   1.902   1.923   1.959   2.027   2.086
 30 A'   31 A'   32 A'   17 A"   18 A"   19 A"   33 A'   34 A'                 
  2.092   2.119   2.246   2.267   2.434   2.471   2.742   2.802
 20 A"   35 A'   36 A'   37 A'   21 A"   38 A'   39 A'   22 A"                 
  2.885   2.978   3.002   3.018   3.092   3.144   3.181   3.335
 40 A'   23 A"   41 A'   42 A'   43 A'   44 A'   24 A"   45 A'                 
  3.356   3.433   3.482   3.504   3.566   3.619   3.645   3.680
 25 A"   46 A'   47 A'   26 A"   48 A'   27 A"   28 A"   49 A'                 
  3.699   3.725   3.777   3.816   3.867   3.906   3.920   3.942
 29 A"   50 A'   30 A"   51 A'   31 A"   52 A'   53 A'   32 A"                 
  3.957   4.021   4.022   4.138   4.138   4.193   4.229   4.259
 33 A"   34 A"   54 A'   55 A'   35 A"   56 A'   36 A"   57 A'                 
  4.277   4.296   4.407   4.532   4.571   4.585   4.597   4.624
 37 A"   38 A"   58 A'   59 A'   39 A"   60 A'   61 A'   40 A"                 
  4.660   4.724   4.731   4.737   4.805   4.851   4.910   4.986
 62 A'   41 A"   63 A'   64 A'   42 A"   65 A'   66 A'   67 A'                 
  4.999   5.113   5.115   5.166   5.204   5.407   5.415   5.492
 43 A"   44 A"   68 A'   69 A'   45 A"   46 A"   70 A'   71 A'                 
  5.536   5.641   5.686   5.810   5.836   5.864   5.896   6.004
 47 A"   72 A'   48 A"   73 A'   49 A"   74 A'   50 A"   75 A'                 
  6.076   6.101   6.174   6.214   6.241   6.299   6.460   6.571
 76 A'   77 A'   51 A"   78 A'   52 A"   79 A'   80 A'   53 A"                 
  6.614   6.730   6.954   7.011   7.142   7.458   7.463   7.891
 54 A"   55 A"   81 A'   56 A"   82 A'   83 A'   57 A"   84 A'                 
  7.937   8.043  10.784  12.515  13.229
 58 A"   85 A'   86 A'   87 A'   88 A'                                         

 Beta MOs, Unrestricted
 -- Occupied --                  
-19.967 -10.808 -10.716  -0.755  -0.486  -0.323  -0.154  -0.075
  1 A'    2 A'    3 A'    4 A'    5 A'    6 A'    1 A"    7 A'                 
 -0.051  -0.048   0.108   0.113   0.176
  8 A'    2 A"    9 A'    3 A"   10 A'                                         
 -- Virtual --                   
  0.521   0.534   0.554   0.609   0.740   0.746   0.821   0.841
 11 A'   12 A'    4 A"    5 A"   13 A'   14 A'   15 A'    6 A"                 
  0.875   0.944   1.004   1.024   1.032   1.060   1.091   1.118
  7 A"   16 A'    8 A"   17 A'   18 A'   19 A'   20 A'   21 A'                 
  1.122   1.134   1.242   1.243   1.315   1.383   1.403   1.403
  9 A"   22 A'   23 A'   10 A"   24 A'   11 A"   25 A'   12 A"                 
  1.427   1.543   1.604   1.618   1.668   1.733   1.738   1.746
 26 A'   13 A"   27 A'   14 A"   15 A"   28 A'   29 A'   16 A"                 
  1.785   1.806   1.856   1.902   1.923   1.959   2.027   2.086
 30 A'   31 A'   32 A'   17 A"   18 A"   19 A"   33 A'   34 A'                 
  2.092   2.119   2.246   2.267   2.434   2.471   2.742   2.802
 20 A"   35 A'   36 A'   37 A'   21 A"   38 A'   39 A'   22 A"                 
  2.885   2.978   3.002   3.018   3.092   3.144   3.181   3.335
 40 A'   23 A"   41 A'   42 A'   43 A'   44 A'   24 A"   45 A'                 
  3.356   3.433   3.482   3.504   3.566   3.619   3.645   3.680
 25 A"   46 A'   47 A'   26 A"   48 A'   27 A"   28 A"   49 A'                 
  3.699   3.725   3.777   3.816   3.867   3.906   3.920   3.942
 29 A"   50 A'   30 A"   51 A'   31 A"   52 A'   53 A'   32 A"                 
  3.957   4.021   4.022   4.138   4.138   4.193   4.229   4.259
 33 A"   34 A"   54 A'   55 A'   35 A"   56 A'   36 A"   57 A'                 
  4.277   4.296   4.407   4.532   4.571   4.585   4.597   4.624
 37 A"   38 A"   58 A'   59 A'   39 A"   60 A'   61 A'   40 A"                 
  4.660   4.724   4.731   4.737   4.805   4.851   4.910   4.986
 62 A'   41 A"   63 A'   64 A'   42 A"   65 A'   66 A'   67 A'                 
  4.999   5.113   5.115   5.166   5.204   5.407   5.415   5.492
 43 A"   44 A"   68 A'   69 A'   45 A"   46 A"   70 A'   71 A'                 
  5.536   5.641   5.686   5.810   5.836   5.864   5.896   6.004
 47 A"   72 A'   48 A"   73 A'   49 A"   74 A'   50 A"   75 A'                 
  6.076   6.101   6.174   6.214   6.241   6.299   6.460   6.571
 76 A'   77 A'   51 A"   78 A'   52 A"   79 A'   80 A'   53 A"                 
  6.614   6.730   6.954   7.011   7.142   7.458   7.463   7.891
 54 A"   55 A"   81 A'   56 A"   82 A'   83 A'   57 A"   84 A'                 
  7.937   8.043  10.784  12.515  13.229
 58 A"   85 A'   86 A'   87 A'   88 A'                                         

 Occupation and symmetry of molecular orbitals

 Point group: Cs (2 irreducible representations).

                           A'   A"    All 
 ------------------------------------------
 All molecular orbitals:
  - Alpha                  88   58    146 
  - Beta                   88   58    146 
 ------------------------------------------
 Alpha orbitals:
  - Frozen occupied        3    0     3   
  - Active occupied        7    3     10  
  - Active virtual         78   55    133 
  - Frozen virtual         0    0     0   
 ------------------------------------------
 Beta orbitals:
  - Frozen occupied        3    0     3   
  - Active occupied        7    3     10  
  - Active virtual         78   55    133 
  - Frozen virtual         0    0     0   
 ------------------------------------------

 Import integrals:   CPU 0.00 s  wall 0.00 s

 Import integrals:   CPU 76.35 s  wall 8.42 s


 MP2  CPU 0.85 s  wall 0.10 s
Running a double precision version
           CCSD T amplitudes will be solved using DIIS.

           Start     Size      MaxIter   EConv     TConv     
           3         7         100       1.00e-07  1.00e-05  
 ------------------------------------------------------------------------------
           Energy (a.u.)   Ediff      Tdiff       Comment
 ------------------------------------------------------------------------------
          -153.23023396                           
     1    -153.22894776   1.29e-03   7.29e-01     
     2    -153.24555731   1.66e-02   8.85e-02     
     3    -153.24529261   2.65e-04   3.02e-02     
     4    -153.24665074   1.36e-03   1.63e-02     Switched to DIIS steps.
     5    -153.24732328   6.73e-04   7.45e-03     
     6    -153.24737622   5.29e-05   2.14e-03     
     7    -153.24738637   1.01e-05   1.46e-03     
     8    -153.24739142   5.06e-06   6.56e-04     
     9    -153.24739347   2.05e-06   3.21e-04     
    10    -153.24739341   5.80e-08   1.21e-04     
    11    -153.24739445   1.03e-06   6.55e-05     
    12    -153.24739423   2.17e-07   4.24e-05     
    13    -153.24739415   7.98e-08   1.57e-05     
    14    -153.24739405   1.00e-07   7.11e-06     
    15    -153.24739401   3.91e-08   3.70e-06     
 ------------------------------------------------------------------------------
          -153.24739401                           CCSD T converged.

 End of double precision
 SCF energy                 = -152.60613334
 MP2 energy                 = -153.23023396
 CCSD correlation energy    =   -0.64126067
 CCSD total energy          = -153.24739401

 CCSD  T1^2 = 0.0090  T2^2 = 0.2107  Leading amplitudes:

 Amplitude    Orbitals with energies
 -0.0344       9 (A') A                  ->    11 (A') A                  
               0.1076                          0.5211                     
 -0.0344       9 (A') B                  ->    11 (A') B                  
               0.1076                          0.5211                     
 -0.0225       3 (A") B                  ->    5 (A") B                   
               0.1129                          0.6087                     
 -0.0225       3 (A") A                  ->    5 (A") A                   
               0.1129                          0.6087                     

 Amplitude    Orbitals with energies
 -0.0349       10 (A') A     10 (A') B   ->    16 (A') A     16 (A') B    
               0.1760        0.1760            0.9440        0.9440       
  0.0349       10 (A') A     10 (A') B   ->    16 (A') B     16 (A') A    
               0.1760        0.1760            0.9440        0.9440       
  0.0349       10 (A') B     10 (A') A   ->    16 (A') A     16 (A') B    
               0.1760        0.1760            0.9440        0.9440       
 -0.0349       10 (A') B     10 (A') A   ->    16 (A') B     16 (A') A    
               0.1760        0.1760            0.9440        0.9440       

 Computing CCSD intermediates for later calculations in double precision
 Finished.


 CCSD  CPU 363.17 s  wall 30.86 s

 EOMEE-CCSD  CPU 1.95 s  wall 0.25 s
        Solving for EOMIP-CCSD A" transitions.

Running a double precision version
      EOMIP-CCSD/MP2 right amplitudes will be solved using Davidson.
        Amplitudes will be solved using standard  algorithm.
     Hard-coded thresholds: 
     LinDepThresh=1.00e-15  NormThresh=1.00e-06  ReorthogonThresh=1.00e-02

      Roots     MaxVec    MaxIter   Precond   Conv      Shift    
      1         120       60        1         1.00e-06  0.00e+00  
 ------------------------------------------------------------------------------
      Iter ConvRoots NVecs ResNorm^2 Current eigenvalues (eV)
 ------------------------------------------------------------------------------
      0    0      1     2.02e-01   -0.9514   
      1    0      2     1.07e-01   -3.4871   
      2    0      3     1.83e-03   -4.5286   
      3    0      4     1.85e-04   -4.5776   
      4    0      5     3.08e-05   -4.5769   
      5    0      6     2.75e-06   -4.5782   
      6    1      7     3.40e-07   -4.5785*  

     Davidson procedure converged

 EOMIP transition 1/A"
 Total energy = -153.41564941 a.u.  Excitation energy = -4.5785 eV.
 R1^2 = 0.9233  R2^2 = 0.0767  Res^2 = 3.40e-07
 Conv-d = yes

 Amplitude    Transitions between orbitals
 -0.9564       3 (A") A                  ->    infty        
  0.0783       2 (A") A                  ->    infty        
  0.0495       1 (A") A                  ->    infty        

              Summary of significant orbitals:

               Number  Type             Irrep      Energy
               7       Occ  Alpha       1 (A")     -0.1545
               10      Occ  Alpha       2 (A")     -0.0483
               12      Occ  Alpha       3 (A")      0.1129


Running a double precision version
      EOMIP-CCSD/MP2 left amplitudes will be solved using Davidson.
        Amplitudes will be solved using MOM  algorithm.
     Hard-coded thresholds: 
     LinDepThresh=1.00e-15  NormThresh=1.00e-06  ReorthogonThresh=1.00e-02

      Roots     MaxVec    MaxIter   Precond   Conv      Shift    
      1         120       60        1         1.00e-06  0.00e+00  
 ------------------------------------------------------------------------------
      Iter ConvRoots NVecs ResNorm^2 Current eigenvalues (eV)
 ------------------------------------------------------------------------------
      0    0      1     9.07e-03   -4.5785   
      1    0      2     3.25e-03   -4.5784   
      2    0      3     7.63e-05   -4.5784   
      3    0      4     6.54e-06   -4.5784   
      4    1      5     4.56e-07   -4.5784*  

     Davidson procedure converged

Running a double precision version
           EOM amplitude response will be solved using DIIS.
           Start     Size      MaxIter   EConv     ZConv     
           3         7         100       1.00e-06  1.00e-06  
 ------------------------------------------------------------------------------
            Enorm      Zdiff       Comment
 ------------------------------------------------------------------------------
     1     7.17e-02   4.71e-02     
     2     2.56e-02   1.63e-02     
     3     1.37e-02   6.55e-03     
     4     4.84e-03   5.65e-03     Switched to DIIS steps.
     5     3.01e-03   1.36e-03     
     6     1.39e-03   8.75e-04     
     7     6.17e-04   3.05e-04     
     8     2.75e-04   1.64e-04     
     9     1.20e-04   2.09e-05     
    10     6.55e-05   1.35e-05     
    11     2.87e-05   2.44e-06     
    12     1.38e-05   1.51e-06     
    13     5.66e-06   3.67e-07     
    14     2.67e-06   7.31e-07     
    15     1.32e-06   4.58e-07     
    16     6.90e-07   1.54e-07     
 ------------------------------------------------------------------------------
                                   Amplitude response converged.

           Orbital response amplitudes will be solved using DIIS.
           Start     Size      MaxIter   EConv     LConv     
           3         7         100       1.00e-06  1.00e-06  
 ------------------------------------------------------------------------------
            Enorm      Ldiff       Comment
 ------------------------------------------------------------------------------
     1     3.00e-01   1.20e-01     
     2     2.91e-01   9.85e-02     
     3     3.67e-01   1.71e-01     
     4     1.37e-02   1.73e-01     Switched to DIIS steps.
     5     7.57e-03   1.08e-03     
     6     3.09e-03   3.25e-03     
     7     9.26e-04   2.17e-04     
     8     4.85e-04   2.59e-04     
     9     1.84e-04   1.17e-04     
    10     6.06e-05   3.52e-05     
    11     2.83e-05   9.24e-06     
    12     1.30e-05   5.61e-06     
    13     7.51e-06   1.34e-06     
    14     2.58e-06   8.27e-07     
    15     1.09e-06   5.42e-07     
    16     4.76e-07   1.54e-07     
 ------------------------------------------------------------------------------
                                   Orbital response converged.


 EOMIP-CCSD  CPU 424.65 s  wall 37.25 s
 Transferring MO TPDM to AO TPDM
 Transferring g2_o1o1o1o1
 Transferring g2_o1o1o1v1
 Transferring g2_o1o1v1v1
 Transferring g2_o1v1o1v1
 Transferring g2_o1v1v1v1
 Transferring g2_v1v1v1v1
 Adding separable TPDM
 Computing TPDM gradient
 --------------------------------------------------------
 2e gradient
  Atom          X               Y               Z
 --------------------------------------------------------
    1          0.437353        1.654066        0.000000  
    2          6.694635        1.198048       -0.000000  
    3         -9.155524       -4.869337        0.000000  
    4         -0.040871        2.024553        2.067882  
    5         -0.040871        2.024553       -2.067882  
    6          1.052639       -1.015941        1.957250  
    7          1.052639       -1.015941       -1.957250  
 --------------------------------------------------------
 --------------------------------------------------------
 Final gradient
  Atom          X               Y               Z
 --------------------------------------------------------
    1          0.437353        1.654066        0.000000  
    2          6.694635        1.198048       -0.000000  
    3         -9.155524       -4.869337        0.000000  
    4         -0.040871        2.024553        2.067882  
    5         -0.040871        2.024553       -2.067882  
    6          1.052639       -1.015941        1.957250  
    7          1.052639       -1.015941       -1.957250  
 --------------------------------------------------------
 Gradient  CPU 554.19 s  wall 51.11 s
 Total ccman2 time:   CPU 1519.49 s  wall 136.75 s


 --------------------------------------------------------------
             Orbital Energies (a.u.) and Symmetries
 --------------------------------------------------------------

 Alpha MOs, Unrestricted
 -- Occupied --                  
-19.967 -10.808 -10.716  -0.755  -0.486  -0.323  -0.075  -0.051
  1 A'    2 A'    3 A'    4 A'    5 A'    6 A'    7 A'    8 A'                 
  0.108   0.176  -0.154  -0.048   0.113
  9 A'   10 A'    1 A"    2 A"    3 A"                                         
 -- Virtual --                   
  0.521   0.534   0.740   0.746   0.821   0.944   1.024   1.032
 11 A'   12 A'   13 A'   14 A'   15 A'   16 A'   17 A'   18 A'                 
  1.060   1.091   1.118   1.134   1.242   1.315   1.403   1.427
 19 A'   20 A'   21 A'   22 A'   23 A'   24 A'   25 A'   26 A'                 
  1.604   1.733   1.738   1.785   1.806   1.856   2.027   2.086
 27 A'   28 A'   29 A'   30 A'   31 A'   32 A'   33 A'   34 A'                 
  2.119   2.246   2.267   2.471   2.742   2.885   3.002   3.018
 35 A'   36 A'   37 A'   38 A'   39 A'   40 A'   41 A'   42 A'                 
  3.092   3.144   3.335   3.433   3.482   3.566   3.680   3.725
 43 A'   44 A'   45 A'   46 A'   47 A'   48 A'   49 A'   50 A'                 
  3.816   3.906   3.920   4.022   4.138   4.193   4.259   4.407
 51 A'   52 A'   53 A'   54 A'   55 A'   56 A'   57 A'   58 A'                 
  4.532   4.585   4.597   4.660   4.731   4.737   4.851   4.910
 59 A'   60 A'   61 A'   62 A'   63 A'   64 A'   65 A'   66 A'                 
  4.986   5.115   5.166   5.415   5.492   5.641   5.810   5.864
 67 A'   68 A'   69 A'   70 A'   71 A'   72 A'   73 A'   74 A'                 
  6.004   6.076   6.101   6.214   6.299   6.460   6.954   7.142
 75 A'   76 A'   77 A'   78 A'   79 A'   80 A'   81 A'   82 A'                 
  7.458   7.891   8.043  10.784  12.515  13.229   0.554   0.609
 83 A'   84 A'   85 A'   86 A'   87 A'   88 A'    4 A"    5 A"                 
  0.841   0.875   1.004   1.122   1.243   1.383   1.403   1.543
  6 A"    7 A"    8 A"    9 A"   10 A"   11 A"   12 A"   13 A"                 
  1.618   1.668   1.746   1.902   1.923   1.959   2.092   2.434
 14 A"   15 A"   16 A"   17 A"   18 A"   19 A"   20 A"   21 A"                 
  2.802   2.978   3.181   3.356   3.504   3.619   3.645   3.699
 22 A"   23 A"   24 A"   25 A"   26 A"   27 A"   28 A"   29 A"                 
  3.777   3.867   3.942   3.957   4.021   4.138   4.229   4.277
 30 A"   31 A"   32 A"   33 A"   34 A"   35 A"   36 A"   37 A"                 
  4.296   4.571   4.624   4.724   4.805   4.999   5.113   5.204
 38 A"   39 A"   40 A"   41 A"   42 A"   43 A"   44 A"   45 A"                 
  5.407   5.536   5.686   5.836   5.896   6.174   6.241   6.571
 46 A"   47 A"   48 A"   49 A"   50 A"   51 A"   52 A"   53 A"                 
  6.614   6.730   7.011   7.463   7.937
 54 A"   55 A"   56 A"   57 A"   58 A"                                         

 Beta MOs, Unrestricted
 -- Occupied --                  
-19.967 -10.808 -10.716  -0.755  -0.486  -0.323  -0.075  -0.051
  1 A'    2 A'    3 A'    4 A'    5 A'    6 A'    7 A'    8 A'                 
  0.108   0.176  -0.154  -0.048   0.113
  9 A'   10 A'    1 A"    2 A"    3 A"                                         
 -- Virtual --                   
  0.521   0.534   0.740   0.746   0.821   0.944   1.024   1.032
 11 A'   12 A'   13 A'   14 A'   15 A'   16 A'   17 A'   18 A'                 
  1.060   1.091   1.118   1.134   1.242   1.315   1.403   1.427
 19 A'   20 A'   21 A'   22 A'   23 A'   24 A'   25 A'   26 A'                 
  1.604   1.733   1.738   1.785   1.806   1.856   2.027   2.086
 27 A'   28 A'   29 A'   30 A'   31 A'   32 A'   33 A'   34 A'                 
  2.119   2.246   2.267   2.471   2.742   2.885   3.002   3.018
 35 A'   36 A'   37 A'   38 A'   39 A'   40 A'   41 A'   42 A'                 
  3.092   3.144   3.335   3.433   3.482   3.566   3.680   3.725
 43 A'   44 A'   45 A'   46 A'   47 A'   48 A'   49 A'   50 A'                 
  3.816   3.906   3.920   4.022   4.138   4.193   4.259   4.407
 51 A'   52 A'   53 A'   54 A'   55 A'   56 A'   57 A'   58 A'                 
  4.532   4.585   4.597   4.660   4.731   4.737   4.851   4.910
 59 A'   60 A'   61 A'   62 A'   63 A'   64 A'   65 A'   66 A'                 
  4.986   5.115   5.166   5.415   5.492   5.641   5.810   5.864
 67 A'   68 A'   69 A'   70 A'   71 A'   72 A'   73 A'   74 A'                 
  6.004   6.076   6.101   6.214   6.299   6.460   6.954   7.142
 75 A'   76 A'   77 A'   78 A'   79 A'   80 A'   81 A'   82 A'                 
  7.458   7.891   8.043  10.784  12.515  13.229   0.554   0.609
 83 A'   84 A'   85 A'   86 A'   87 A'   88 A'    4 A"    5 A"                 
  0.841   0.875   1.004   1.122   1.243   1.383   1.403   1.543
  6 A"    7 A"    8 A"    9 A"   10 A"   11 A"   12 A"   13 A"                 
  1.618   1.668   1.746   1.902   1.923   1.959   2.092   2.434
 14 A"   15 A"   16 A"   17 A"   18 A"   19 A"   20 A"   21 A"                 
  2.802   2.978   3.181   3.356   3.504   3.619   3.645   3.699
 22 A"   23 A"   24 A"   25 A"   26 A"   27 A"   28 A"   29 A"                 
  3.777   3.867   3.942   3.957   4.021   4.138   4.229   4.277
 30 A"   31 A"   32 A"   33 A"   34 A"   35 A"   36 A"   37 A"                 
  4.296   4.571   4.624   4.724   4.805   4.999   5.113   5.204
 38 A"   39 A"   40 A"   41 A"   42 A"   43 A"   44 A"   45 A"                 
  5.407   5.536   5.686   5.836   5.896   6.174   6.241   6.571
 46 A"   47 A"   48 A"   49 A"   50 A"   51 A"   52 A"   53 A"                 
  6.614   6.730   7.011   7.463   7.937
 54 A"   55 A"   56 A"   57 A"   58 A"                                         
 --------------------------------------------------------------

          Ground-State Mulliken Net Atomic Charges

     Atom                 Charge (a.u.)    Spin (a.u.)
  --------------------------------------------------------
      1 C                    -0.017799       0.096229
      2 C                    -0.820669       0.003735
      3 O                    -0.317971      -0.933886
      4 H                     0.058349      -0.080866
      5 H                     0.058349      -0.080866
      6 H                     0.019870      -0.002173
      7 H                     0.019870      -0.002173
  --------------------------------------------------------
  Sum of atomic charges =    -1.000000
  Sum of spin   charges =    -1.000000

 -----------------------------------------------------------------
                    Cartesian Multipole Moments
 -----------------------------------------------------------------
    Charge (ESU x 10^10)
                -4.8032
    Dipole Moment (Debye)
         X       3.2708      Y      -0.5741      Z      -0.0000
       Tot       3.3208
    Quadrupole Moments (Debye-Ang)
        XX     -36.5189     XY      -2.2959     YY     -24.3498
        XZ       0.0000     YZ      -0.0000     ZZ     -21.3018
    Octopole Moments (Debye-Ang^2)
       XXX      23.2438    XXY       4.2731    XYY       5.3756
       YYY       2.1002    XXZ      -0.0000    XYZ       0.0000
       YYZ      -0.0000    XZZ       5.0554    YZZ       0.6948
       ZZZ      -0.0000
    Hexadecapole Moments (Debye-Ang^3)
      XXXX    -235.7061   XXXY      -6.5631   XXYY     -45.8435
      XYYY       2.2742   YYYY     -59.7346   XXXZ      -0.0000
      XXYZ      -0.0000   XYYZ       0.0000   YYYZ      -0.0000
      XXZZ     -39.0414   XYZZ       0.8866   YYZZ     -15.8076
      XZZZ       0.0000   YZZZ      -0.0000   ZZZZ     -39.7030
 -----------------------------------------------------------------
 DrvMan completing analytic gradient of the correlated energy
 Correlated dipole moment
            1
    1   1.2868314
    2  -0.2258872
    3  -0.0000000
 Energy read as -153.415649408
 Full Analytical Gradient: (in a.u., or Hartree/Bohr)
             1             2             3             4             5
    1    0.03426268   -0.01522256   -0.00735091   -0.00498677   -0.00498677
    2   -0.00003179    0.01634961   -0.00456517    0.00012645    0.00012645
    3   -0.00000000    0.00000000   -0.00000000    0.00228040   -0.00228040
             6             7
    1   -0.00085783   -0.00085783
    2   -0.00600277   -0.00600277
    3    0.00032214   -0.00032214
 Gradient time:  CPU 1.64 s  wall 1.58 s

     Step 1	:
        Energy is -153.4156494079
                            Maximum         Tolerance       Converged?
         Gradient           1.87412250e-02	3.00000000e-04	false
         Displacement       2.92448665e-01	1.20000000e-03	false
         Energy change      2.85554078e-02	1.00000000e-06	false


	OPTIMIZATION CYCLE:	2





 Scaling Magnitude of Eigenvalues
 	Minimum: -25.00000000	 Maximum: 25.00000000
 15 Hessian Eigenvalues to form next step
   0.00688669   0.02766170   0.07842912   0.08212143   0.15735522
   0.16000000   0.16000000   0.16047379   0.26427229   0.31532041
   0.31754433   0.34043210   0.34730347   0.35230211   0.53499842


 Minimum Search taking a RFO step
 Searching for Lambda that minimizes along all modes
	Value of Lambda   -0.00379672
	Norm  of Stepsize  0.25435777
	RMS   of Stepsize  0.06567490

	Performing Iterative Coordinate Back-Transformation

	  Starting from Previous Position

	  iter:	0	rms: 4.7810073972e-02	maxdev: 1.0045595487e-01
	  iter:	1	rms: 3.0642926791e-03	maxdev: 5.4490877578e-03
	  iter:	2	rms: 3.5002452460e-06	maxdev: 6.8639040979e-06
	  iter:	3	rms: 0.0000000000e+00	maxdev: 0.0000000000e+00	 Success!

	Finished Iterative Coordinate Back-Transformation
 ----------------------------------------------------------------
             Standard Nuclear Orientation (Angstroms)
    I     Atom           X                Y                Z
 ----------------------------------------------------------------
    1      C       0.0885386412    -0.4759686691     0.0000000000
    2      C      -1.3063846091     0.0457644700     0.0000000000
    3      O       1.2490540245     0.3191883082     0.0000000000
    4      H       0.2594796668    -1.1569830931    -0.8583494203
    5      H       0.2594796668    -1.1569830931     0.8583494203
    6      H      -1.4405815212     0.6783998098    -0.8874412478
    7      H      -1.4405815212     0.6783998098     0.8874412478
 ----------------------------------------------------------------
 Molecular Point Group                 Cs    NOp =  2
 Largest Abelian Subgroup              Cs    NOp =  2
 Nuclear Repulsion Energy =          66.82859152 hartrees
 There are       13 alpha and       13 beta electrons

                       Distance Matrix (Angstroms)
             C (  1)   C (  2)   O (  3)   H (  4)   H (  5)   H (  6)
   C (  2)  1.489301
   O (  3)  1.406794  2.570025
   H (  4)  1.108948  2.152974  1.973602
   H (  5)  1.108948  2.152974  1.973602  1.716699
   H (  6)  2.111475  1.098084  2.854947  2.501936  3.050676
   H (  7)  2.111475  1.098084  2.854947  3.050676  2.501936  1.774882


 Applying Cartesian multipole field
    Component          Value
    ---------          -----
     (2,0,0)        1.00000E-11
     (0,2,0)        2.00000E-10
     (0,0,2)       -3.00000E-10
 Nucleus-field energy     = 1.8314397806e-09 hartrees
 Requested basis set is cc-pVTZ
 There are 54 shells and 146 basis functions
 A cutoff of  1.0D-14 yielded   1482 shell pairs
 There are     10938 function pairs (     14024 Cartesian)
 Smallest overlap matrix eigenvalue = 1.16E-03
 Guess MOs from SCF MO coefficient file

 -----------------------------------------------------------------------
  General SCF calculation program by
  Eric Jon Sundstrom, Paul Horn, Yuezhi Mao, Dmitri Zuev, Alec White,
  David Stuck, Shaama M.S., Shane Yost, Joonho Lee, David Small,
  Daniel Levine, Susi Lehtola, Hugh Burton, Evgeny Epifanovsky,
  Bang C. Huynh
 -----------------------------------------------------------------------
 Hartree-Fock
 A unrestricted SCF calculation will be
 performed using DIIS
 SCF converges when DIIS error is below 1.0e-08
 User-specified cutoff of 10e-14
 used for neglect of 2-electron integrals.
 A cutoff of 10e-14
 used for neglect of overlap integrals.
 Incremental Fock algorithm is on at the start.
 ---------------------------------------
  Cycle       Energy         DIIS error
 ---------------------------------------
    1    -152.6029096785      4.79e-04  
    2    -152.6054830241      1.43e-04  
    3    -152.6056972051      9.00e-05  
    4    -152.6057712797      1.34e-05  
    5    -152.6057770950      3.60e-06  
    6    -152.6057776314      1.23e-06  
    7    -152.6057776917      4.07e-07  
    8    -152.6057776976      1.25e-07  
    9    -152.6057776985      3.56e-08  
   10    -152.6057776986      1.29e-08  
   11    -152.6057776986      5.43e-09  Convergence criterion met
 ---------------------------------------
 SCF time:   CPU 45.50s  wall 5.00s 
<S^2> =         -0.000000000
 SCF   energy =  -152.60577770
 Total energy =  -152.60577770


 ------------------------------------------------------------------------------

   CCMAN2: suite of methods based on coupled cluster
           and equation of motion theories.

   Components:
   * libvmm-1.3-trunk
     by Evgeny Epifanovsky, Ilya Kaliman.
   * libtensor-2.5-trunk
     by Evgeny Epifanovsky, Michael Wormit, Dmitry Zuev, Sam Manzer, 
        Ilya Kaliman.
   * libcc-2.5-trunk
     by Evgeny Epifanovsky, Arik Landau, Tomasz Kus, Kirill Khistyaev, 
        Dmitry Zuev, Prashant Manohar, Xintian Feng, Anna Krylov, 
        Matthew Goldey, Alec White, Thomas Jagau, Kaushik Nanda, 
        Anastasia Gunina, Alexander Kunitsa, Joonho Lee.

   CCMAN original authors:
   Anna I. Krylov, C. David Sherrill, Steven R. Gwaltney,
   Edward F. C. Byrd (2000)
   Sergey V. Levchenko, Lyudmila V. Slipchenko, Tao Wang,
   Ana-Maria C. Cristian (2003)
   Piotr A. Pieniazek, C. Melania Oana, Evgeny Epifanovsky (2007)
   Prashant Manohar (2009)

 ------------------------------------------------------------------------------


 Allocating and initializing 199808MB of RAM (this may take a while)...
 Calculation will run on 16 cores.


 Alpha MOs, Unrestricted
 -- Occupied --                  
-19.965 -10.807 -10.716  -0.752  -0.494  -0.321  -0.155  -0.075
  1 A'    2 A'    3 A'    4 A'    5 A'    6 A'    1 A"    7 A'                 
 -0.049  -0.039   0.107   0.115   0.168
  8 A'    2 A"    9 A'    3 A"   10 A'                                         
 -- Virtual --                   
  0.522   0.534   0.554   0.613   0.739   0.743   0.816   0.819
 11 A'   12 A'    4 A"    5 A"   13 A'   14 A'   15 A'    6 A"                 
  0.883   0.940   0.999   1.029   1.051   1.061   1.091   1.118
  7 A"   16 A'    8 A"   17 A'   18 A'   19 A'   20 A'    9 A"                 
  1.121   1.139   1.242   1.246   1.320   1.384   1.405   1.408
 21 A'   22 A'   23 A'   10 A"   24 A'   11 A"   25 A'   26 A'                 
  1.410   1.558   1.617   1.626   1.664   1.730   1.743   1.749
 12 A"   13 A"   27 A'   14 A"   15 A"   28 A'   16 A"   29 A'                 
  1.790   1.818   1.848   1.882   1.916   1.962   2.046   2.079
 30 A'   31 A'   32 A'   17 A"   18 A"   19 A"   33 A'   34 A'                 
  2.100   2.117   2.233   2.261   2.408   2.476   2.732   2.777
 20 A"   35 A'   36 A'   37 A'   21 A"   38 A'   39 A'   22 A"                 
  2.883   3.006   3.011   3.048   3.100   3.164   3.195   3.353
 40 A'   23 A"   41 A'   42 A'   43 A'   44 A'   24 A"   45 A'                 
  3.375   3.452   3.470   3.511   3.555   3.618   3.658   3.658
 25 A"   46 A'   47 A'   26 A"   48 A'   27 A"   28 A"   49 A'                 
  3.689   3.723   3.769   3.830   3.861   3.907   3.920   3.936
 29 A"   50 A'   30 A"   51 A'   31 A"   52 A'   53 A'   32 A"                 
  3.982   4.011   4.047   4.133   4.154   4.185   4.198   4.253
 33 A"   54 A'   34 A"   35 A"   55 A'   56 A'   36 A"   37 A"                 
  4.259   4.316   4.450   4.507   4.566   4.597   4.630   4.635
 57 A'   38 A"   58 A'   59 A'   60 A'   39 A"   61 A'   40 A"                 
  4.684   4.723   4.745   4.751   4.830   4.832   4.924   5.010
 62 A'   63 A'   41 A"   64 A'   65 A'   42 A"   66 A'   43 A"                 
  5.022   5.111   5.148   5.167   5.211   5.401   5.407   5.490
 67 A'   44 A"   68 A'   69 A'   45 A"   46 A"   70 A'   71 A'                 
  5.529   5.618   5.679   5.785   5.830   5.847   5.896   5.987
 47 A"   48 A"   72 A'   73 A'   49 A"   74 A'   50 A"   75 A'                 
  6.079   6.110   6.141   6.229   6.248   6.329   6.464   6.583
 76 A'   77 A'   51 A"   78 A'   52 A"   79 A'   80 A'   53 A"                 
  6.640   6.745   6.946   6.984   7.136   7.462   7.467   7.887
 54 A"   55 A"   81 A'   56 A"   82 A'   83 A'   57 A"   84 A'                 
  7.925   8.049  10.790  12.418  13.381
 58 A"   85 A'   86 A'   87 A'   88 A'                                         

 Beta MOs, Unrestricted
 -- Occupied --                  
-19.965 -10.807 -10.716  -0.752  -0.494  -0.321  -0.155  -0.075
  1 A'    2 A'    3 A'    4 A'    5 A'    6 A'    1 A"    7 A'                 
 -0.049  -0.039   0.107   0.115   0.168
  8 A'    2 A"    9 A'    3 A"   10 A'                                         
 -- Virtual --                   
  0.522   0.534   0.554   0.613   0.739   0.743   0.816   0.819
 11 A'   12 A'    4 A"    5 A"   13 A'   14 A'   15 A'    6 A"                 
  0.883   0.940   0.999   1.029   1.051   1.061   1.091   1.118
  7 A"   16 A'    8 A"   17 A'   18 A'   19 A'   20 A'    9 A"                 
  1.121   1.139   1.242   1.246   1.320   1.384   1.405   1.408
 21 A'   22 A'   23 A'   10 A"   24 A'   11 A"   25 A'   26 A'                 
  1.410   1.558   1.617   1.626   1.664   1.730   1.743   1.749
 12 A"   13 A"   27 A'   14 A"   15 A"   28 A'   16 A"   29 A'                 
  1.790   1.818   1.848   1.882   1.916   1.962   2.046   2.079
 30 A'   31 A'   32 A'   17 A"   18 A"   19 A"   33 A'   34 A'                 
[...]
     4   -7.513805075636323e-03   4.616794441143870e-03   1.475178113010655e-03
     5   -7.511299875858407e-03   4.618360094804841e-03  -1.472518096014855e-03
     6   -2.302630855284932e-02   3.829544615063615e-02  -2.027798831309261e-02
     7   -2.302588778415470e-02   3.829312471876671e-02   2.027566639454894e-02

Order 1, Size 21
    Atom      X          Y          Z
     1    9.809886627978345e-02  -8.582242822911453e-02   0.000000000000000e+00
     2   -1.332615040683673e-01   2.978736063985700e-01   5.920704804426345e-07
     3   -2.339510997442710e-02   1.569806644446947e-02   8.654360444883885e-07
     4    1.411345112758756e-02  -2.465325188562478e-03   1.201435503744088e-03
     5    1.411638136018407e-02  -2.465324464815409e-03  -1.200044640801906e-03
     6    1.516313602314714e-02  -1.114068491616748e-01   1.023648468244890e-01
     7    1.516536113145807e-02  -1.114068490314544e-01  -1.023660001563338e-01

Order 1, Size 21
    Atom      X          Y          Z
     1    1.446405474215337e-06   8.855080169177272e-07  -7.527628558809629e-02
     2   -1.136871090671561e-06   5.920704804426345e-07   4.378101721837192e-01
     3   -1.908543723045320e-06   0.000000000000000e+00   1.317222702108992e-02
     4    2.284320765033056e-02  -1.330859960576730e-02  -3.149657408447986e-03
     5   -2.284341012536567e-02   1.330949543587174e-02  -3.152193228254699e-03
     6    4.839234040602717e-03   1.232720303627290e-01  -1.846993925107332e-01
     7   -4.836804706701713e-03  -1.232743373943929e-01  -1.847022687716792e-01


     3 Order 1, Size 21
    Atom      X          Y          Z
     1   -1.108518380190146e-01  -2.039529580077184e-02   8.524806019952543e-07
     2   -4.282654448122800e-02  -2.339510997442710e-02  -1.908543723045320e-06
     3    1.680915896527215e-01   1.061695195969303e-01  -1.356103871251252e-06
     4   -1.186269045561960e-02  -3.150803227474316e-02  -1.860598068899155e-02
     5   -1.186203226068259e-02  -3.150867338169404e-02   1.860481132111710e-02
     6    4.664204652666752e-03   3.273493247752242e-04   4.254847877423602e-04
     7    4.658844147178503e-03   3.244186274477892e-04  -4.268010385540209e-04

Order 1, Size 21
    Atom      X          Y          Z
     1   -4.881975599431593e-02  -1.173357619451901e-01   0.000000000000000e+00
     2    7.210562853057793e-03   1.569806644446947e-02   0.000000000000000e+00
     3    1.061695195969303e-01   1.520516762730054e-01  -6.814463876775939e-07
     4   -2.971201299209161e-02  -2.924534392852222e-02  -1.515464874662249e-02
     5   -2.971230987350360e-02  -2.924534379721492e-02   1.515494370730528e-02
     6   -2.568133869478501e-03   4.041783391739929e-03  -4.977690063959372e-03
     7   -2.570672536462999e-03   4.041783334590407e-03   4.976317317342224e-03

Order 1, Size 21
    Atom      X          Y          Z
     1    9.266592603340957e-07   1.936002760590786e-06  -8.579813164777038e-02
     2    0.000000000000000e+00   8.654360444883885e-07   1.317222702108992e-02
     3   -1.356103871251252e-06  -6.814463876775939e-07   4.841278029821899e-02
     4   -1.766501693668375e-02  -2.071360744904936e-02   9.718969904867944e-03
     5    1.766264940163814e-02   2.071347234503381e-02   9.719851522451630e-03
     6    2.065540064219036e-03  -3.071319217365524e-03   2.383868645249137e-03
     7   -2.067929998446800e-03   3.069334307941878e-03   2.380998063932960e-03


     4 Order 1, Size 21
    Atom      X          Y          Z
     1   -3.516259467002588e-02   2.734333767154586e-02   2.750261379716365e-02
     2   -7.513805075636323e-03   1.411345112758756e-02   2.284320765033056e-02
     3   -1.186269045561960e-02  -2.971201299209161e-02  -1.766501693668375e-02
     4    5.714456837679137e-02  -1.636553871065507e-02  -2.847036473976551e-02
     5    2.317544011113898e-03  -1.641379966087524e-03  -4.486893169513811e-03
     6    4.238149050446183e-04  -1.018907853704033e-03  -1.553146106497754e-03
     7   -5.346846464116243e-03   7.285732843004966e-03   1.831375831442848e-03

Order 1, Size 21
    Atom      X          Y          Z
     1    4.265827421372443e-02  -9.569873673655437e-02  -8.069502884658286e-02
     2    4.616794441143870e-03  -2.465325188562478e-03  -1.330859960576730e-02
     3   -3.150803227474316e-02  -2.924534392852222e-02  -2.071360744904936e-02
     4   -1.636553871065507e-02   1.197002279198232e-01   1.058209291065226e-01
     5   -1.642839263283681e-03   1.111958898054680e-02   9.661375096306201e-03
     6   -1.567073806969156e-03  -6.932916150322186e-04   9.812070717499658e-04
     7    3.808312959566943e-03  -2.713590040487955e-03  -1.748780177282213e-03

Order 1, Size 21
    Atom      X          Y          Z
     1    3.916430100417072e-02  -7.907510461143089e-02  -1.657277650622183e-01
     2    1.475178113010655e-03   1.201435503744088e-03  -3.149657408447986e-03
     3   -1.860598068899155e-02  -1.515464874662249e-02   9.718969904867944e-03
     4   -2.847036473976551e-02   1.058209291065226e-01   1.849183325230874e-01
     5    4.485294652527675e-03  -9.661257902420815e-03  -3.044223358526807e-02
     6    5.824245127305562e-05  -1.837619808395316e-03   1.618384237455551e-03
     7    1.891728905670407e-03  -1.291907564965994e-03   3.058908524314626e-03


     5 Order 1, Size 21
    Atom      X          Y          Z
     1   -3.516366666231178e-02   2.734373914874444e-02  -2.749808787901905e-02
     2   -7.511299875858407e-03   1.411638136018407e-02  -2.284341012536567e-02
     3   -1.186203226068259e-02  -2.971230987350360e-02   1.766264940163814e-02
     4    2.317544011113898e-03  -1.642839263283681e-03   4.485294652527675e-03
     5    5.714359810692396e-02  -1.636509497369828e-02   2.847009924241524e-02
     6   -5.345597115874992e-03   7.284212401269384e-03  -1.830020737668257e-03
     7    4.220444844994702e-04  -1.019406623741116e-03   1.550598470166766e-03

Order 1, Size 21
    Atom      X          Y          Z
     1    4.265827427971590e-02  -9.569873688215272e-02   8.069453139124319e-02
     2    4.618360094804841e-03  -2.465324464815409e-03   1.330949543587174e-02
     3   -3.150867338169404e-02  -2.924534379721492e-02   2.071347234503381e-02
     4   -1.641379966087524e-03   1.111958898054680e-02  -9.661257902420815e-03
     5   -1.636509497369828e-02   1.197002278486763e-01  -1.058254325583134e-01
     6    3.808285020735747e-03  -2.713590398263644e-03   1.748425210629462e-03
     7   -1.569562539518421e-03  -6.932919822373585e-04  -9.819662805160261e-04

Order 1, Size 21
    Atom      X          Y          Z
     1   -3.916713099377375e-02   7.907560729862634e-02  -1.657320969859469e-01
     2   -1.472518096014855e-03  -1.200044640801906e-03  -3.152193228254699e-03
     3    1.860481132111710e-02   1.515494370730528e-02   9.719851522451630e-03
     4   -4.486893169513811e-03   9.661375096306201e-03  -3.044223358526807e-02
     5    2.847009924241524e-02  -1.058254325583134e-01   1.849277738453750e-01
     6   -1.889687564445442e-03   1.291701693381997e-03   3.058957661711575e-03
     7   -5.736375272658712e-05   1.840023543008368e-03   1.620479336846179e-03


     6 Order 1, Size 21
    Atom      X          Y          Z
     1   -5.898464804817977e-03   2.275902556056026e-02  -2.714925263498413e-02
     2   -2.302630855284932e-02   1.516313602314714e-02   4.839234040602717e-03
     3    4.664204652666752e-03  -2.568133869478501e-03   2.065540064219036e-03
     4    4.238149050446183e-04  -1.567073806969156e-03   5.824245127305562e-05
     5   -5.345597115874992e-03   3.808285020735747e-03  -1.889687564445442e-03
     6    3.257204403232286e-02  -3.402671127016274e-02   2.028747632557025e-02
     7   -3.390062892449696e-03  -3.566873607535427e-03   1.787681599149970e-03

Order 1, Size 21
    Atom      X          Y          Z
     1   -7.290794102712534e-03  -1.272324913988199e-02   1.753008352197848e-02
     2    3.829544615063615e-02  -1.114068491616748e-01   1.232720303627290e-01
     3    3.273493247752242e-04   4.041783391739929e-03  -3.071319217365524e-03
     4   -1.018907853704033e-03  -6.932916150322186e-04  -1.837619808395316e-03
     5    7.284212401269384e-03  -2.713590398263644e-03   1.291701693381997e-03
     6   -3.402671127016274e-02   1.153419906439376e-01  -1.214173260765008e-01
     7   -3.567233729101499e-03   8.148888892920982e-03  -1.575920800167783e-02

Order 1, Size 21
    Atom      X          Y          Z
     1    4.733370300378167e-03   5.541511117796401e-03  -7.104690415765783e-03
     2   -2.027798831309261e-02   1.023648468244890e-01  -1.846993925107332e-01
     3    4.254847877423602e-04  -4.977690063959372e-03   2.383868645249137e-03
     4   -1.553146106497754e-03   9.812070717499658e-04   1.618384237455551e-03
     5   -1.830020737668257e-03   1.748425210629462e-03   3.058957661711575e-03
     6    2.028747632557025e-02  -1.214173260765008e-01   2.084597294119533e-01
     7   -1.785931921839726e-03   1.576055298725740e-02  -2.372168982445216e-02


     7 Order 1, Size 21
    Atom      X          Y          Z
     1   -5.889836982167367e-03   2.276322548117875e-02   2.714777514762007e-02
     2   -2.302588778415470e-02   1.516536113145807e-02  -4.836804706701713e-03
     3    4.658844147178503e-03  -2.570672536462999e-03  -2.067929998446800e-03
     4   -5.346846464116243e-03   3.808312959566943e-03   1.891728905670407e-03
     5    4.220444844994702e-04  -1.569562539518421e-03  -5.736375272658712e-05
     6   -3.390062892449696e-03  -3.567233729101499e-03  -1.785931921839726e-03
     7    3.257199548895194e-02  -3.402777666073151e-02  -2.029103294512803e-02

Order 1, Size 21
    Atom      X          Y          Z
     1   -7.290794127931174e-03  -1.272324905252003e-02  -1.752232641908483e-02
     2    3.829312471876671e-02  -1.114068490314544e-01  -1.232743373943929e-01
     3    3.244186274477892e-04   4.041783334590407e-03   3.069334307941878e-03
     4    7.285732843004966e-03  -2.713590040487955e-03  -1.291907564965994e-03
     5   -1.019406623741116e-03  -6.932919822373585e-04   1.840023543008368e-03
     6   -3.566873607535427e-03   8.148888892920982e-03   1.576055298725740e-02
     7   -3.402777666073151e-02   1.153419907911369e-01   1.214170089715900e-01

Order 1, Size 21
    Atom      X          Y          Z
     1   -4.728358684893184e-03  -5.538898581639856e-03  -7.094638386964973e-03
     2    2.027566639454894e-02  -1.023660001563338e-01  -1.847022687716792e-01
     3   -4.268010385540209e-04   4.976317317342224e-03   2.380998063932960e-03
     4    1.831375831442848e-03  -1.748780177282213e-03   3.058908524314626e-03
     5    1.550598470166766e-03  -9.819662805160261e-04   1.620479336846179e-03
     6    1.787681599149970e-03  -1.575920800167783e-02  -2.372168982445216e-02
     7   -2.029103294512803e-02   1.214170089715900e-01   2.084592477486144e-01





 ###########################################
 # Finishing finite difference calculation #
 ###########################################

 Total FD time:  10732.42s(wall), 77439.95s(cpu) 
 Wed Feb  4 01:20:58 2026
 Requested basis set is cc-pVTZ
 There are 54 shells and 146 basis functions
 **********************************************************************
 **                                                                  **
 **                       VIBRATIONAL ANALYSIS                       **
 **                       --------------------                       **
 **                                                                  **
 **        VIBRATIONAL FREQUENCIES (CM**-1) AND NORMAL MODES         **
 **     FORCE CONSTANTS (mDYN/ANGSTROM) AND REDUCED MASSES (AMU)     **
 **                  INFRARED INTENSITIES (KM/MOL)                   **
 **                                                                  **
 **********************************************************************


 Mode:                 1                      2                      3
 Frequency:       -94.76                 391.93                 737.74
 Force Cnst:      0.0059                 0.1779                 0.7988
 Red. Mass:       1.1076                 1.9651                 2.4909
 IR Active:          YES                    YES                    YES
 IR Intens:       29.027                 55.934                 29.689
 Raman Active:       YES                    YES                    YES
               X      Y      Z        X      Y      Z        X      Y      Z
 C         -0.000 -0.000 -0.046   -0.033  0.138 -0.000    0.096  0.044  0.000
 C         -0.000 -0.000  0.062   -0.105 -0.047 -0.000    0.254  0.102 -0.000
 O          0.000  0.000  0.048    0.190 -0.059  0.000   -0.180 -0.059 -0.000
 H         -0.106  0.170 -0.196   -0.071  0.153 -0.005   -0.107 -0.092  0.006
 H          0.106 -0.170 -0.196   -0.071  0.153  0.005   -0.106 -0.094 -0.007
 H         -0.270 -0.514 -0.284   -0.616 -0.231 -0.053   -0.555 -0.305 -0.134
 H          0.270  0.514 -0.284   -0.616 -0.231  0.053   -0.556 -0.304  0.133
 TransDip  -0.000 -0.000 -0.173   -0.239  0.009 -0.000   -0.109  0.137  0.000

 Mode:                 4                      5                      6
 Frequency:       752.74                 922.50                1104.39
 Force Cnst:      0.3927                 2.6925                 2.3432
 Red. Mass:       1.1762                 5.3700                 3.2607
 IR Active:          YES                    YES                    YES
 IR Intens:       10.935                290.953                115.100
 Raman Active:       YES                    YES                    YES
               X      Y      Z        X      Y      Z        X      Y      Z
 C         -0.000 -0.000  0.114    0.268  0.422 -0.000    0.311 -0.130 -0.000
 C         -0.000 -0.000 -0.007   -0.096 -0.202  0.000   -0.261  0.148  0.000
 O          0.000  0.000 -0.041   -0.155 -0.217  0.000   -0.028  0.001  0.000
 H         -0.262  0.355 -0.212   -0.189  0.147 -0.007    0.279 -0.348  0.112
 H          0.262 -0.355 -0.212   -0.189  0.147  0.007    0.279 -0.348 -0.112
 H          0.491 -0.044 -0.101    0.398  0.265  0.169   -0.357  0.234  0.066
 H         -0.490  0.045 -0.101    0.398  0.265 -0.169   -0.357  0.234 -0.066
 TransDip   0.000 -0.000  0.106    0.442  0.321 -0.000    0.340  0.046 -0.000

 Mode:                 7                      8                      9
 Frequency:      1147.65                1242.72                1274.90
 Force Cnst:      1.0274                 1.0857                 1.0923
 Red. Mass:       1.3240                 1.1932                 1.1406
 IR Active:          YES                    YES                    YES
 IR Intens:        0.610                  0.008                 21.565
 Raman Active:       YES                    YES                    YES
               X      Y      Z        X      Y      Z        X      Y      Z
 C          0.000 -0.000  0.144   -0.000  0.000  0.078   -0.049  0.025 -0.000
 C         -0.000  0.000 -0.065   -0.000  0.000 -0.103   -0.011  0.034  0.000
 O         -0.000 -0.000 -0.053   -0.000 -0.000  0.012   -0.040 -0.065 -0.000
 H          0.421  0.418 -0.098   -0.563 -0.028 -0.037    0.647  0.249 -0.044
 H         -0.421 -0.418 -0.098    0.564  0.028 -0.037    0.646  0.249  0.044
 H         -0.341  0.076  0.055   -0.371  0.160  0.092    0.023 -0.087 -0.071
 H          0.341 -0.076  0.055    0.371 -0.160  0.092    0.023 -0.087  0.071
 TransDip   0.000  0.000 -0.025   -0.000 -0.000 -0.003   -0.146  0.028 -0.000

 Mode:                10                     11                     12
 Frequency:      1405.52                1426.57                2702.80
 Force Cnst:      1.4118                 1.3508                 4.7178
 Red. Mass:       1.2129                 1.1266                 1.0961
 IR Active:          YES                    YES                    YES
 IR Intens:       46.936                 29.080                688.147
 Raman Active:       YES                    YES                    YES
               X      Y      Z        X      Y      Z        X      Y      Z
 C          0.087 -0.086 -0.000   -0.016 -0.049 -0.000    0.000 -0.000 -0.089
 C         -0.047  0.036  0.000    0.068 -0.058 -0.000    0.000 -0.000  0.006
 O         -0.012 -0.002 -0.000   -0.009 -0.004  0.000   -0.000 -0.000 -0.001
 H         -0.210  0.460 -0.432    0.041  0.215 -0.150   -0.122  0.423  0.546
 H         -0.210  0.460  0.432    0.041  0.215  0.150    0.122 -0.423  0.546
 H          0.069 -0.144 -0.151   -0.274  0.448  0.385   -0.017  0.042 -0.046
 H          0.069 -0.144  0.151   -0.274  0.448 -0.385    0.017 -0.042 -0.046
 TransDip   0.134 -0.173  0.000    0.082 -0.152  0.000    0.000 -0.000 -0.840

 Mode:                13                     14                     15
 Frequency:      2779.39                2877.91                2907.11
 Force Cnst:      4.8008                 5.1416                 5.4780
 Red. Mass:       1.0548                 1.0536                 1.1001
 IR Active:          YES                    YES                    YES
 IR Intens:      868.801                187.479                523.593
 Raman Active:       YES                    YES                    YES
               X      Y      Z        X      Y      Z        X      Y      Z
 C         -0.029  0.056 -0.000    0.010 -0.005 -0.000   -0.000  0.000 -0.013
 C         -0.003  0.008  0.000   -0.019  0.061 -0.000    0.000 -0.000 -0.091
 O          0.010  0.007 -0.000   -0.001 -0.003  0.000    0.000  0.000  0.002
 H          0.096 -0.386 -0.571   -0.030  0.069  0.087   -0.002  0.031  0.050
 H          0.096 -0.387  0.571   -0.030  0.069 -0.087    0.002 -0.031  0.050
 H          0.011 -0.053  0.101    0.093 -0.377  0.578    0.086 -0.418  0.556
 H          0.011 -0.053 -0.101    0.093 -0.377 -0.578   -0.086  0.419  0.557
 TransDip  -0.221  0.918 -0.000   -0.099  0.427 -0.000    0.000  0.000 -0.733

 STANDARD THERMODYNAMIC QUANTITIES AT   298.15 K  AND     1.00 ATM

   This Molecule has  1 Imaginary Frequencies
   Zero point vibrational energy:       30.984 kcal/mol

   Atom    1 Element C  Has Mass   12.00000
   Atom    2 Element C  Has Mass   12.00000
   Atom    3 Element O  Has Mass   15.99491
   Atom    4 Element H  Has Mass    1.00783
   Atom    5 Element H  Has Mass    1.00783
   Atom    6 Element H  Has Mass    1.00783
   Atom    7 Element H  Has Mass    1.00783
   Molecular Mass:    44.026230 amu
   Principal axes and moments of inertia in amu*Bohr^2:
                             1           2           3
    Eigenvalues --       40.02512   188.92387   206.92111
          X              -0.99765    -0.06859     0.00000
          Y              -0.06859     0.99765     0.00000
          Z              -0.00000     0.00000     1.00000
   Rotational Symmetry Number is   1
   The Molecule is an Asymmetric Top
   Translational Enthalpy:        0.889 kcal/mol
   Rotational Enthalpy:           0.889 kcal/mol
   Vibrational Enthalpy:         31.389 kcal/mol
   gas constant (RT):             0.592 kcal/mol
   Translational Entropy:        37.273  cal/mol.K
   Rotational Entropy:           21.975  cal/mol.K
   Vibrational Entropy:           1.845  cal/mol.K

   Total Enthalpy:               33.758 kcal/mol
   Total Entropy:                61.093  cal/mol.K

   Quasi-RRHO corrections using alpha = 4, and omega = 100 cm^-1
   QRRHO-Vib. Enthalpy:          31.385 kcal/mol
   QRRHO-Vib. Entropy:            1.848  cal/mol.K
   QRRHO-Total Enthalpy:         33.755 kcal/mol
   QRRHO-Total Entropy:          61.096  cal/mol.K
 Total job time:  10994.34s(wall), 79340.77s(cpu) 
 Wed Feb  4 01:20:58 2026

        *************************************************************
        *                                                           *
        *  Thank you very much for using Q-Chem.  Have a nice day.  *
        *                                                           *
        *************************************************************


