                  Welcome to Q-Chem
     A Quantum Leap Into The Future Of Chemistry


 Q-Chem 6.4 (devel), Q-Chem, Inc., Pleasanton, CA (2025)

 E. Epifanovsky,  A. T. B. Gilbert,  Xintian Feng,  Joonho Lee,  Yuezhi Mao,  
 N. Mardirossian,  P. Pokhilko,  A. White,  M. Wormit,  M. P. Coons,  
 A. L. Dempwolff,  Zhengting Gan,  D. Hait,  P. R. Horn,  L. D. Jacobson,  
 I. Kaliman,  J. Kussmann,  A. W. Lange,  Ka Un Lao,  D. S. Levine,  Jie Liu,  
 S. C. McKenzie,  A. F. Morrison,  K. D. Nanda,  F. Plasser,  D. R. Rehn,  
 M. L. Vidal,  Zhi-Qiang You,  Ying Zhu,  Huseyin Aksu,  B. Alam,  
 B. Albrecht,  A. Aldossary,  E. Alguire,  J. H. Andersen,  
 J. E. Arias-Martinez,  V. Athavale,  F. Ballesteros,  D. Barton,  K. Begam,  
 A. Behn,  N. Bellonzi,  Y. A. Bernard,  E. J. Berquist,  H. Burton,  
 S. Camps,  A. Carreras,  K. Carter-Fenk,  Mathew Chow,  Jeng-Da Chai,  
 Arnab Chakraborty,  Romit Chakraborty,  Chandrima Chakravarty,  Junhan Chen,  
 A. D. Chien,  K. D. Closser,  V. Cofer-Shabica,  L. Cunha,  S. Dasgupta,  
 Jia Deng,  Joseph Dickinson,  M. de Wergifosse,  M. Diedenhofen,  
 L. B. Dittmer,  Hainam Do,  Wenjie Dou,  S. Ehlert,  Po-Tung Fang,  
 Anthuan Ferino-Pérez,  S. Fatehi,  Qingguo Feng,  Jonathan Fetherolf,  
 T. Friedhoff,  Thomas Froitzheim,  Sarai Folkestad,  B. Ganoe,  J. Gayvert,  
 Qinghui Ge,  G. Gidofalvi,  M. Gimferrer,  G. Giudetti,  M. Goldey,  
 Montgomery Gray,  J. Gomes,  C. Gonzalez-Espinoza,  S. Gulania,  A. Gunina,  
 J. A. Gyamfi,  M. W. D. Hanson-Heine,  P. H. P. Harbach,  A. W. Hauser,  
 M. F. Herbst,  M. Hernandez Vera,  M. Hodecker,  Z. C. Holden,  S. Houck,  
 Xunkun Huang,  Kerwin Hui,  B. C. Huynh,  K. Ikeda,  M. Ivanov,  
 Nayanthara K. Jayadev,  Hyunjun Ji,  Zuxin Jin,  Hanjie Jiang,  
 Subrata Jana,  B. Kaduk,  S. Kaehler,  Richard Kang,  K. Khistyaev,  
 Jaehoon Kim,  Yongbin Kim,  P. Klunzinger,  Z. Koczor-Benda,  
 Joong Hoon Koh,  Elena Kolodzeiski,  D. Kosenkov,  Saikiran Kotaru,  
 L. Koulias,  T. Kowalczyk,  C. M. Krauter,  K. Kue,  A. Kunitsa,  T. Kus,  
 A. Landau,  C. W. Lander,  K. V. Lawler,  D. Lefrancois,  S. Lehtola,  
 Rain Li,  Shaozhi Li,  Tao E. Li,  Yi-Pei Li,  Jiashu Liang,  M. Liebenthal,  
 Hung-Hsuan Lin,  You-Sheng Lin,  Fenglai Liu,  Kuan-Yu Liu,  Xiao Liu,  
 M. Loipersberger,  A. Luenser,  C. Malbon,  Aniket Mandal,  Manisha,  
 A. Manjanath,  P. Manohar,  E. Mansoor,  S. F. Manzer,  Shan-Ping Mao,  
 A. V. Marenich,  T. Markovich,  S. Mason,  F. Matz,  S. A. Maurer,  
 Samuel May,  Alexandra McIsaac,  P. F. McLaughlin,  M. F. S. J. Menger,  
 J.-M. Mewes,  S. A. Mewes,  R. E. Moorby,  P. Morgante,  
 Mohammad Mostafanejad,  Madhubani Mukherjee,  J. W. Mullinax,  Quyen Nguyen,  
 Avik Kumar Ojha,  K. J. Oosterbaan,  Eno Paenurk,  Xiaoliang Pan,  G. Paran,  
 V. Parravicini,  R. L. Patterson,  Alexander C. Paul,  Suranjan K. Paul,  
 F. Pavosevic,  Zheng Pei,  P. Pokhilko,  S. Prager,  E. I. Proynov,  
 E. Ramos,  B. Rana,  A. E. Rask,  A. Rettig,  R. M. Richard,  F. Rob,  
 E. Rossomme,  S. Roy,  T. Scheele,  M. Scheurer,  M. Schneider,  
 P. E. Schneider,  Tim K. Schramm,  N. Sergueev,  S. M. Sharada,  
 Hengyuan Shen,  W. Skomorowski,  D. W. Small,  C. J. Stein,  
 Alistair J. Sterling,  Yingli Su,  Yu-Chuan Su,  E. J. Sundstrom,  
 J. Talbot,  J. A. Tan,  Zhen Tao,  Hung-Hsuan Teh,  J. Thirman,  C. Titeca,  
 N. Tkachenko,  Hung-Yi Tsai,  T. Tsuchimochi,  N. M. Tubman,  C. Utku,  
 S. P. Veccham,  O. Vydrov,  Z. Wang,  Markus G. S. Weiss,  Rahel Weiss,  
 J. Wenzel,  Jonathan Wong,  J. Witte,  H. Wu,  Yanze Wu,  A. Yamada,  
 Chou-Hsun Yang,  Kun Yao,  S. Yeganeh,  S. R. Yost,  Qi Yu,  A. Zech,  
 F. Zeller,  Chongxiao Zhao,  T. Zhao,  Igor Ying Zhang,  Xing Zhang,  
 Yu Zhang,  Zeyi Zhang,  D. Zuev,  A. Aspuru-Guzik,  A. T. Bell,  
 N. A. Besley,  K. B. Bravaya,  B. R. Brooks,  D. Casanova,  Jeng-Da Chai,  
 Hsing-Ta Chen,  S. Coriani,  C. J. Cramer,  A. E. DePrince, III,  
 R. A. DiStasio Jr.,  A. Dreuw,  B. D. Dunietz,  T. R. Furlani,  
 W. A. Goddard III,  S. Grimme,  S. Hammes-Schiffer,  T. Head-Gordon,  
 W. J. Hehre,  Chao-Ping Hsu,  T.-C. Jagau,  Yousung Jung,  A. Klamt,  
 Jing Kong,  D. S. Lambrecht,  Xiangyuan Li,  WanZhen Liang,  N. J. Mayhall,  
 C. W. McCurdy,  J. B. Neaton,  T. Neudecker,  C. Ochsenfeld,  
 J. A. Parkhill,  R. Peverati,  V. A. Rassolov,  Haisheng Ren,  Yihan Shao,  
 L. V. Slipchenko,  R. P. Steele,  J. E. Subotnik,  A. J. W. Thom,  
 A. Tkatchenko,  D. G. Truhlar,  T. Van Voorhis,  Fan Wang,  
 T. A. Wesolowski,  K. B. Whaley,  H. L. Woodcock III,  P. M. Zimmerman,  
 S. Faraji,  P. M. W. Gill,  M. Head-Gordon,  J. M. Herbert,  A. I. Krylov

 Contributors to earlier versions of Q-Chem not listed above: 
 R. D. Adamson,  B. Austin,  R. Baer,  J. Baker,  G. J. O. Beran,  
 K. Brandhorst,  S. T. Brown,  E. F. C. Byrd,  Arup K. Chakraborty,  
 G. K. L. Chan,  Chun-Min Chang,  Yunqing Chen,  C.-L. Cheng,  
 Siu Hung Chien,  D. M. Chipman,  D. L. Crittenden,  H. Dachsel,  
 R. J. Doerksen,  A. D. Dutoi,  R. G. Edgar,  J. Fosso-Tande,  
 L. Fusti-Molnar,  D. Ghosh,  A. Ghysels,  A. Golubeva-Zadorozhnaya,  
 J. Gonthier,  M. S. Gordon,  S. R. Gwaltney,  G. Hawkins,  J. E. Herr,  
 A. Heyden,  S. Hirata,  E. G. Hohenstein,  G. Kedziora,  F. J. Keil,  
 C. Kelley,  Jihan Kim,  R. A. King,  R. Z. Khaliullin,  P. P. Korambath,  
 W. Kurlancheek,  A. Laurent,  A. M. Lee,  M. S. Lee,  S. V. Levchenko,  
 Ching Yeh Lin,  D. Liotard,  E. Livshits,  R. C. Lochan,  I. Lotan,  
 L. A. Martinez-Martinez,  P. E. Maslen,  N. Nair,  D. P. O'Neill,  
 D. Neuhauser,  E. Neuscamman,  C. M. Oana,  R. Olivares-Amaya,  R. Olson,  
 T. M. Perrine,  B. Peters,  P. A. Pieniazek,  A. Prociuk,  Y. M. Rhee,  
 J. Ritchie,  M. A. Rohrdanz,  E. Rosta,  N. J. Russ,  H. F. Schaefer III,  
 M. W. Schmidt,  N. E. Schultz,  S. Sharma,  N. Shenvi,  C. D. Sherrill,  
 A. C. Simmonett,  A. Sodt,  T. Stein,  D. Stuck,  K. S. Thanthiriwatte,  
 V. Vanovschi,  L. Vogt,  Tao Wang,  A. Warshel,  M. A. Watson,  
 C. F. Williams,  Q. Wu,  X. Xu,  Jun Yang,  W. Zhang,  Yan Zhao

   Please cite Q-Chem as follows:
  "Software for the frontiers of quantum chemistry:
   An overview of developments in the Q-Chem 5 package"
   J. Chem. Phys. 155, 084801 (2021)
   https://doi.org/10.1063/5.0055522 (open access)

 Q-Chem 6.4.0 for Intel X86 EM64T Linux

 Parts of Q-Chem use Armadillo 12.8.2 (Cortisol Injector).
 http://arma.sourceforge.net/

 Q-Chem begins on Mon Jan 26 10:48:34 2026  

 Host: orc29
0

 Scratch files written to /scratch/bibhas/qchem30071//
 Executable: /qcsoftware/qchem_latest/exe/qcprog.exe
 Number of threads = 16
 Processing $rem in /qcsoftware/qchem_latest/config/preferences:
 Processing $rem in /home/users/bibhas/.qchemrc:
 Core orbitals will be frozen

 Checking the input file for inconsistencies... 	...done.

--------------------------------------------------------------
User input:
--------------------------------------------------------------
$molecule
-2 1
  C    0.1680604   -0.5348581   -0.0000258
  C   -1.1717595    0.1731560    0.0000119
  O    1.0707274    0.4620546    0.0001839
  H    0.2153262   -1.2219084   -0.8863507
  H    0.2152266   -1.2221892    0.8860863
  H   -1.3833301    0.7388802   -0.9074669
  H   -1.3834299    0.7385941    0.9076459
$end

$rem
   BASIS  =  cc-pVTZ
   DIP_TRIPLETS  =  [1, 0]
   CC_STATE_TO_OPT  =  [1, 1]  
   GUI  =  2
   JOB_TYPE  =  OPT
   MEM_TOTAL  =  200000
   METHOD  =  EOM-CCSD
   SCF_CONVERGENCE  =  8
$end


--------------------------------------------------------------
 Atom   1: (  0.1744294578, -0.5536673947,  0.0000002837)
         ->(  0.1744294578, -0.5536673947,  0.0000000000)
 Atom   2: ( -1.1840169737,  0.1179162736,  0.0000002114)
         ->( -1.1840169737,  0.1179162736,  0.0000000000)
 Atom   3: (  1.0498528580,  0.4672520722, -0.0000004789)
         ->(  1.0498528580,  0.4672520722,  0.0000000000)
 Atom   5: (  0.2401811000, -1.2393314314,  0.8862197233)
         ->(  0.2401808334, -1.2393343304,  0.8862173014)
 Atom   7: ( -1.4108286354,  0.6775801996,  0.9075556317)
         ->( -1.4108310663,  0.6775757110,  0.9075571933)
 ----------------------------------------------------------------
             Standard Nuclear Orientation (Angstroms)
    I     Atom           X                Y                Z
 ----------------------------------------------------------------
    1      C       0.1744294578    -0.5536673948     0.0000000000
    2      C      -1.1840169740     0.1179162737     0.0000000000
    3      O       1.0498528582     0.4672520723     0.0000000000
    4      H       0.2401808334    -1.2393343307    -0.8862173016
    5      H       0.2401808334    -1.2393343307     0.8862173016
    6      H      -1.4108310666     0.6775757111    -0.9075571935
    7      H      -1.4108310666     0.6775757111     0.9075571935
 ----------------------------------------------------------------
 Molecular Point Group                 Cs    NOp =  2
 Largest Abelian Subgroup              Cs    NOp =  2
 Nuclear Repulsion Energy =          68.62644814 hartrees
 There are       13 alpha and       13 beta electrons
 Requested basis set is cc-pVTZ
 There are 54 shells and 146 basis functions
 Total memory of 200000 MB is distributed as follows: 
   MEM_STATIC is set to 192 MB
   QALLOC/CCMAN JOB total memory use is  199808 MB
 Warning: actual memory use might exceed 200000 MB

 Total QAlloc Memory Limit 200000 MB
 Mega-Array Size       188 MB
 MEM_STATIC part       192 MB

 -----------------------------------------------------------------------
                STARTING GEOMETRY OPTIMIZER USING LIBOPT3
                by Peter F. McLaughlin, Yu Zhang, Evgeny Epifanovsky
 -----------------------------------------------------------------------

              Initial Energy and Gradient Calculation
   -- Checking Topology for Ill-Behaving Coordinates --

 -------------------------------------------
   Coordinate       |  Removed | Additions 
 -------------------------------------------
	Bonds                     0          0
	Angles                    0          0
	Torsions                  0          0
	Co-Linear Type5s          0          0
	Co-Linear Type6s          0          0
 -------------------------------------------
     Done Checking Topology
 ----------------------------------------------------------------
             Standard Nuclear Orientation (Angstroms)
    I     Atom           X                Y                Z
 ----------------------------------------------------------------
    1      C       0.1744293975    -0.5536671414     0.0000000000
    2      C      -1.1840168248     0.1179169508     0.0000000000
    3      O       1.0498531164     0.4672520526    -0.0000000000
    4      H       0.2401805593    -1.2393340978    -0.8862173016
    5      H       0.2401805593    -1.2393340978     0.8862173016
    6      H      -1.4108307428     0.6775764590    -0.9075571935
    7      H      -1.4108307428     0.6775764590     0.9075571935
 ----------------------------------------------------------------
 Molecular Point Group                 Cs    NOp =  2
 Largest Abelian Subgroup              Cs    NOp =  2
 Nuclear Repulsion Energy =          68.62644675 hartrees
 There are       13 alpha and       13 beta electrons

                       Distance Matrix (Angstroms)
             C (  1)   C (  2)   O (  3)   H (  4)   H (  5)   H (  6)
   C (  2)  1.515388
   O (  3)  1.344858  2.261020
   H (  4)  1.122428  2.157742  2.086477
   H (  5)  1.122428  2.157742  2.086477  1.772435
   H (  6)  2.202878  1.090102  2.631133  2.529988  3.101292
   H (  7)  2.202878  1.090102  2.631133  3.101292  2.529988  1.815114


 Requested basis set is cc-pVTZ
 There are 54 shells and 146 basis functions
 A cutoff of  1.0D-14 yielded   1484 shell pairs
 There are     10944 function pairs (     14030 Cartesian)
 Smallest overlap matrix eigenvalue = 1.24E-03

 Scale SEOQF with 1.000000e-01/1.000000e+00/1.000000e+00

 Standard Electronic Orientation quadrupole field applied
 Nucleus-field energy     =     0.0000000028 hartrees
 Guess from superposition of atomic densities
 Warning:  Energy on first SCF cycle will be non-variational
 SAD guess density has 24.000000 electrons

 -----------------------------------------------------------------------
  General SCF calculation program by
  Eric Jon Sundstrom, Paul Horn, Yuezhi Mao, Dmitri Zuev, Alec White,
  David Stuck, Shaama M.S., Shane Yost, Joonho Lee, David Small,
  Daniel Levine, Susi Lehtola, Hugh Burton, Evgeny Epifanovsky,
  Bang C. Huynh
 -----------------------------------------------------------------------
 Hartree-Fock
 using 16 threads for integral computing
 -------------------------------------------------------
 OpenMP Integral computing Module                
 Release: version 1.0, May 2013, Q-Chem Inc. Pittsburgh 
 -------------------------------------------------------
 A restricted SCF calculation will be
 performed using DIIS
 SCF converges when DIIS error is below 1.0e-08
 User-specified cutoff of 10e-14
 used for neglect of 2-electron integrals.
 A cutoff of 10e-14
 used for neglect of overlap integrals.
 Incremental Fock algorithm is on at the start.
 ---------------------------------------
  Cycle       Energy         DIIS error
 ---------------------------------------
    1    -153.2159574619      3.69e-02  
    2    -152.3784248689      8.53e-03  
    3    -152.5082749981      6.07e-03  
    4    -152.5827450167      6.06e-04  
    5    -152.5840406953      2.86e-04  
    6    -152.5843456985      6.96e-05  
    7    -152.5843864514      2.48e-05  
    8    -152.5843968375      1.26e-05  
    9    -152.5844007302      6.31e-06  
   10    -152.5844019481      2.35e-06  
   11    -152.5844021088      6.60e-07  
   12    -152.5844021173      1.90e-07  
   13    -152.5844021180      5.05e-08  
   14    -152.5844021180      1.72e-08  
   15    -152.5844021180      4.36e-09  Convergence criterion met
 ---------------------------------------
 SCF time:   CPU 35.52s  wall 4.00s 
 SCF   energy =  -152.58440212
 Total energy =  -152.58440212


 ------------------------------------------------------------------------------

   CCMAN2: suite of methods based on coupled cluster
           and equation of motion theories.

   Components:
   * libvmm-1.3-trunk
     by Evgeny Epifanovsky, Ilya Kaliman.
   * libtensor-2.5-trunk
     by Evgeny Epifanovsky, Michael Wormit, Dmitry Zuev, Sam Manzer, 
        Ilya Kaliman.
   * libcc-2.5-trunk
     by Evgeny Epifanovsky, Arik Landau, Tomasz Kus, Kirill Khistyaev, 
        Dmitry Zuev, Prashant Manohar, Xintian Feng, Anna Krylov, 
        Matthew Goldey, Alec White, Thomas Jagau, Kaushik Nanda, 
        Anastasia Gunina, Alexander Kunitsa, Joonho Lee.

   CCMAN original authors:
   Anna I. Krylov, C. David Sherrill, Steven R. Gwaltney,
   Edward F. C. Byrd (2000)
   Sergey V. Levchenko, Lyudmila V. Slipchenko, Tao Wang,
   Ana-Maria C. Cristian (2003)
   Piotr A. Pieniazek, C. Melania Oana, Evgeny Epifanovsky (2007)
   Prashant Manohar (2009)

 ------------------------------------------------------------------------------


 Allocating and initializing 199808MB of RAM (this may take a while)...
 Calculation will run on 16 cores.


 Alpha MOs, Restricted
 -- Occupied --                  
-19.966 -10.811 -10.694  -0.781  -0.464  -0.322  -0.157  -0.093
  1 A'    2 A'    3 A'    4 A'    5 A'    6 A'    1 A"    7 A'                 
 -0.050  -0.036   0.101   0.105   0.219
  8 A'    2 A"    9 A'    3 A"   10 A'                                         
 -- Virtual --                   
  0.519   0.540   0.553   0.613   0.714   0.763   0.793   0.860
 11 A'   12 A'    4 A"    5 A"   13 A'   14 A'   15 A'    6 A"                 
  0.903   0.946   1.002   1.024   1.035   1.062   1.097   1.111
  7 A"   16 A'    8 A"   17 A'   18 A'   19 A'   20 A'   21 A'                 
  1.136   1.184   1.244   1.269   1.320   1.368   1.392   1.417
  9 A"   22 A'   10 A"   23 A'   24 A'   11 A"   12 A"   25 A'                 
  1.460   1.560   1.639   1.646   1.675   1.708   1.731   1.759
 26 A'   13 A"   14 A"   27 A'   15 A"   28 A'   29 A'   16 A"                 
  1.762   1.819   1.846   1.906   1.921   1.924   1.975   2.077
 30 A'   31 A'   32 A'   17 A"   18 A"   33 A'   19 A"   20 A"                 
  2.097   2.133   2.242   2.385   2.499   2.510   2.728   2.815
 34 A'   35 A'   36 A'   37 A'   38 A'   21 A"   39 A'   22 A"                 
  2.861   2.955   3.013   3.079   3.096   3.208   3.218   3.276
 40 A'   23 A"   41 A'   42 A'   43 A'   44 A'   24 A"   45 A'                 
  3.326   3.443   3.506   3.518   3.618   3.621   3.657   3.725
 25 A"   46 A'   26 A"   47 A'   48 A'   27 A"   28 A"   29 A"                 
  3.768   3.773   3.773   3.858   3.873   3.916   3.930   3.978
 49 A'   30 A"   50 A'   31 A"   51 A'   52 A'   32 A"   33 A"                 
  3.997   4.022   4.033   4.104   4.142   4.198   4.211   4.261
 53 A'   34 A"   54 A'   55 A'   35 A"   56 A'   36 A"   37 A"                 
  4.294   4.327   4.393   4.472   4.527   4.566   4.597   4.654
 57 A'   38 A"   58 A'   59 A'   39 A"   60 A'   61 A'   40 A"                 
  4.694   4.706   4.722   4.778   4.793   4.837   4.947   4.964
 62 A'   63 A'   41 A"   64 A'   42 A"   65 A'   66 A'   43 A"                 
  4.982   5.068   5.137   5.184   5.270   5.378   5.428   5.447
 67 A'   44 A"   68 A'   69 A'   45 A"   70 A'   46 A"   71 A'                 
  5.588   5.608   5.681   5.797   5.835   5.836   5.848   5.990
 47 A"   72 A'   48 A"   73 A'   49 A"   74 A'   50 A"   75 A'                 
  6.023   6.131   6.225   6.231   6.240   6.334   6.487   6.565
 76 A'   77 A'   51 A"   78 A'   52 A"   79 A'   53 A"   80 A'                 
  6.686   6.790   7.004   7.085   7.138   7.483   7.502   7.949
 54 A"   55 A"   81 A'   82 A'   56 A"   83 A'   57 A"   84 A'                 
  7.959   8.044  11.238  12.626  13.574
 58 A"   85 A'   86 A'   87 A'   88 A'                                         

 Beta MOs, Restricted
 -- Occupied --                  
-19.966 -10.811 -10.694  -0.781  -0.464  -0.322  -0.157  -0.093
  1 A'    2 A'    3 A'    4 A'    5 A'    6 A'    1 A"    7 A'                 
 -0.050  -0.036   0.101   0.105   0.219
  8 A'    2 A"    9 A'    3 A"   10 A'                                         
 -- Virtual --                   
  0.519   0.540   0.553   0.613   0.714   0.763   0.793   0.860
 11 A'   12 A'    4 A"    5 A"   13 A'   14 A'   15 A'    6 A"                 
  0.903   0.946   1.002   1.024   1.035   1.062   1.097   1.111
  7 A"   16 A'    8 A"   17 A'   18 A'   19 A'   20 A'   21 A'                 
  1.136   1.184   1.244   1.269   1.320   1.368   1.392   1.417
  9 A"   22 A'   10 A"   23 A'   24 A'   11 A"   12 A"   25 A'                 
  1.460   1.560   1.639   1.646   1.675   1.708   1.731   1.759
 26 A'   13 A"   14 A"   27 A'   15 A"   28 A'   29 A'   16 A"                 
  1.762   1.819   1.846   1.906   1.921   1.924   1.975   2.077
 30 A'   31 A'   32 A'   17 A"   18 A"   33 A'   19 A"   20 A"                 
  2.097   2.133   2.242   2.385   2.499   2.510   2.728   2.815
 34 A'   35 A'   36 A'   37 A'   38 A'   21 A"   39 A'   22 A"                 
  2.861   2.955   3.013   3.079   3.096   3.208   3.218   3.276
 40 A'   23 A"   41 A'   42 A'   43 A'   44 A'   24 A"   45 A'                 
  3.326   3.443   3.506   3.518   3.618   3.621   3.657   3.725
 25 A"   46 A'   26 A"   47 A'   48 A'   27 A"   28 A"   29 A"                 
  3.768   3.773   3.773   3.858   3.873   3.916   3.930   3.978
 49 A'   30 A"   50 A'   31 A"   51 A'   52 A'   32 A"   33 A"                 
  3.997   4.022   4.033   4.104   4.142   4.198   4.211   4.261
 53 A'   34 A"   54 A'   55 A'   35 A"   56 A'   36 A"   37 A"                 
  4.294   4.327   4.393   4.472   4.527   4.566   4.597   4.654
 57 A'   38 A"   58 A'   59 A'   39 A"   60 A'   61 A'   40 A"                 
  4.694   4.706   4.722   4.778   4.793   4.837   4.947   4.964
 62 A'   63 A'   41 A"   64 A'   42 A"   65 A'   66 A'   43 A"                 
  4.982   5.068   5.137   5.184   5.270   5.378   5.428   5.447
 67 A'   44 A"   68 A'   69 A'   45 A"   70 A'   46 A"   71 A'                 
  5.588   5.608   5.681   5.797   5.835   5.836   5.848   5.990
 47 A"   72 A'   48 A"   73 A'   49 A"   74 A'   50 A"   75 A'                 
  6.023   6.131   6.225   6.231   6.240   6.334   6.487   6.565
 76 A'   77 A'   51 A"   78 A'   52 A"   79 A'   53 A"   80 A'                 
  6.686   6.790   7.004   7.085   7.138   7.483   7.502   7.949
 54 A"   55 A"   81 A'   82 A'   56 A"   83 A'   57 A"   84 A'                 
  7.959   8.044  11.238  12.626  13.574
 58 A"   85 A'   86 A'   87 A'   88 A'                                         

 Occupation and symmetry of molecular orbitals

 Point group: Cs (2 irreducible representations).

                           A'   A"    All 
 ------------------------------------------
 All molecular orbitals:
  - Alpha                  88   58    146 
  - Beta                   88   58    146 
 ------------------------------------------
 Alpha orbitals:
  - Frozen occupied        3    0     3   
  - Active occupied        7    3     10  
  - Active virtual         78   55    133 
  - Frozen virtual         0    0     0   
 ------------------------------------------
 Beta orbitals:
  - Frozen occupied        3    0     3   
  - Active occupied        7    3     10  
  - Active virtual         78   55    133 
  - Frozen virtual         0    0     0   
 ------------------------------------------

 Import integrals:   CPU 0.00 s  wall 0.00 s

 Import integrals:   CPU 35.48 s  wall 4.00 s


 MP2  CPU 0.33 s  wall 0.23 s
Running a double precision version
           CCSD T amplitudes will be solved using DIIS.

           Start     Size      MaxIter   EConv     TConv     
           3         7         100       1.00e-07  1.00e-05  
 ------------------------------------------------------------------------------
           Energy (a.u.)   Ediff      Tdiff       Comment
 ------------------------------------------------------------------------------
          -153.21033649                           
     1    -153.20801928   2.32e-03   7.26e-01     
     2    -153.22510318   1.71e-02   8.80e-02     
     3    -153.22459886   5.04e-04   3.02e-02     
     4    -153.22604275   1.44e-03   2.00e-02     Switched to DIIS steps.
     5    -153.22682510   7.82e-04   7.45e-03     
     6    -153.22689966   7.46e-05   2.40e-03     
     7    -153.22692902   2.94e-05   2.20e-03     
     8    -153.22694352   1.45e-05   1.03e-03     
     9    -153.22695256   9.04e-06   7.32e-04     
    10    -153.22695456   2.01e-06   3.11e-04     
    11    -153.22695548   9.20e-07   1.59e-04     
    12    -153.22695504   4.40e-07   8.07e-05     
    13    -153.22695446   5.80e-07   2.26e-05     
    14    -153.22695443   3.50e-08   1.13e-05     
    15    -153.22695424   1.93e-07   6.80e-06     
    16    -153.22695421   2.53e-08   3.28e-06     
 ------------------------------------------------------------------------------
          -153.22695421                           CCSD T converged.

 End of double precision
 SCF energy                 = -152.58440212
 MP2 energy                 = -153.21033649
 CCSD correlation energy    =   -0.64255209
 CCSD total energy          = -153.22695421

 CCSD  T1^2 = 0.0134  T2^2 = 0.2122  Leading amplitudes:

 Amplitude    Orbitals with energies
  0.0351       10 (A') A                 ->    11 (A') A                  
               0.2194                          0.5189                     
  0.0351       10 (A') B                 ->    11 (A') B                  
               0.2194                          0.5189                     
 -0.0276       10 (A') A                 ->    12 (A') A                  
               0.2194                          0.5400                     
 -0.0276       10 (A') B                 ->    12 (A') B                  
               0.2194                          0.5400                     

 Amplitude    Orbitals with energies
 -0.0480       10 (A') A     10 (A') B   ->    16 (A') A     16 (A') B    
               0.2194        0.2194            0.9464        0.9464       
  0.0480       10 (A') A     10 (A') B   ->    16 (A') B     16 (A') A    
               0.2194        0.2194            0.9464        0.9464       
  0.0480       10 (A') B     10 (A') A   ->    16 (A') A     16 (A') B    
               0.2194        0.2194            0.9464        0.9464       
 -0.0480       10 (A') B     10 (A') A   ->    16 (A') B     16 (A') A    
               0.2194        0.2194            0.9464        0.9464       

 Computing CCSD intermediates for later calculations in double precision
 Finished.


 CCSD  CPU 223.49 s  wall 21.24 s

 EOMEE-CCSD  CPU 0.79 s  wall 0.35 s
        Solving for EOMDIP-CCSD A' transitions to triplet states

           EOMDIP-CCSD right amplitudes will be solved using Davidson.
        Amplitudes will be solved using standard  algorithm.
     Hard-coded thresholds: 
     LinDepThresh=1.00e-15  NormThresh=1.00e-06  ReorthogonThresh=1.00e-02

      Roots     MaxVec    MaxIter   Precond   Conv      Shift    
      1         120       60        1         1.00e-06  0.00e+00  
 ------------------------------------------------------------------------------
      Iter ConvRoots NVecs ResNorm^2 Current eigenvalues (eV)
 ------------------------------------------------------------------------------
      0    0      1     3.35e-01   2.1104   
      1    0      2     1.69e-01   -2.5023   
      2    0      3     5.21e-03   -4.0965   
      3    0      4     1.17e-03   -4.2019   
      4    0      5     3.29e-04   -4.2249   
      5    0      6     8.59e-05   -4.2256   
      6    0      7     1.36e-05   -4.2290   
      7    0      8     2.03e-06   -4.2295   
      8    1      9     3.08e-07   -4.2293*  

     Davidson procedure converged

 EOMDIP-CCSD transition 1/A'
 Total energy = -153.38237921 a.u.  Excitation energy = -4.2293 eV.
 R2^2 = 0.8788  R3^2 = 0.1212  Res^2 = 3.08e-07
 Conv-d = yes

 Amplitude    Transitions between orbitals
 -0.6506       9 (A') A      10 (A') B                 ->    infty        
 -0.6506       9 (A') B      10 (A') A                 ->    infty        
  0.1004       7 (A') A      10 (A') B                 ->    infty        
  0.1004       7 (A') B      10 (A') A                 ->    infty        

              Summary of significant orbitals:

               Number  Type             Irrep      Energy
               8       Occ  Alpha       7 (A')     -0.0932
               11      Occ  Alpha       9 (A')      0.1007
               13      Occ  Alpha      10 (A')      0.2194
               8       Occ  Beta        7 (A')     -0.0932
               11      Occ  Beta        9 (A')      0.1007
               13      Occ  Beta       10 (A')      0.2194


           EOMDIP-CCSD left amplitudes will be solved using Davidson.
        Amplitudes will be solved using MOM  algorithm.
     Hard-coded thresholds: 
     LinDepThresh=1.00e-15  NormThresh=1.00e-06  ReorthogonThresh=1.00e-02

      Roots     MaxVec    MaxIter   Precond   Conv      Shift    
      1         120       60        1         1.00e-06  0.00e+00  
 ------------------------------------------------------------------------------
      Iter ConvRoots NVecs ResNorm^2 Current eigenvalues (eV)
 ------------------------------------------------------------------------------
      0    0      1     1.22e-02   -4.2293   
      1    0      2     4.07e-03   -4.2294   
      2    0      3     6.66e-05   -4.2294   
      3    0      4     1.19e-05   -4.2294   
      4    0      5     1.39e-06   -4.2294   
      5    1      6     3.58e-07   -4.2294*  

     Davidson procedure converged

Running a double precision version
           EOM amplitude response will be solved using DIIS.
           Start     Size      MaxIter   EConv     ZConv     
           3         7         100       1.00e-06  1.00e-06  
 ------------------------------------------------------------------------------
            Enorm      Zdiff       Comment
 ------------------------------------------------------------------------------
     1     7.05e-02   4.94e-02     
     2     3.05e-02   1.96e-02     
     3     1.77e-02   9.52e-03     
     4     7.99e-03   1.14e-02     Switched to DIIS steps.
     5     5.04e-03   3.32e-03     
     6     3.03e-03   3.38e-03     
     7     1.42e-03   2.49e-03     
     8     8.42e-04   4.56e-04     
     9     3.42e-04   6.29e-04     
    10     1.57e-04   5.48e-05     
    11     5.91e-05   1.44e-05     
    12     2.89e-05   1.22e-05     
    13     1.56e-05   1.62e-06     
    14     9.68e-06   2.66e-06     
    15     5.26e-06   1.27e-06     
    16     2.29e-06   1.32e-06     
    17     1.33e-06   2.57e-07     
    18     6.84e-07   4.93e-08     
 ------------------------------------------------------------------------------
                                   Amplitude response converged.

           Orbital response amplitudes will be solved using DIIS.
           Start     Size      MaxIter   EConv     LConv     
           3         7         100       1.00e-06  1.00e-06  
 ------------------------------------------------------------------------------
            Enorm      Ldiff       Comment
 ------------------------------------------------------------------------------
     1     5.04e-01   2.70e-01     
     2     5.92e-01   1.56e-01     
     3     7.65e-01   3.25e-01     
     4     1.81e-02   3.99e-01     Switched to DIIS steps.
     5     7.60e-03   1.31e-03     
     6     1.33e-03   1.29e-03     
     7     2.45e-04   4.71e-05     
     8     8.74e-05   5.33e-05     
     9     3.97e-05   3.19e-06     
    10     7.63e-06   6.45e-06     
    11     3.12e-06   8.49e-07     
    12     9.43e-07   1.31e-06     
    13     7.57e-07   7.54e-08     
 ------------------------------------------------------------------------------
                                   Orbital response converged.


 EOMDIP-CCSD  CPU 257.89 s  wall 26.32 s
 Transferring MO TPDM to AO TPDM
 Transferring g2_o1o1o1o1
 Transferring g2_o1o1o1v1
 Transferring g2_o1o1v1v1
 Transferring g2_o1v1o1v1
 Transferring g2_o1v1v1v1
 Transferring g2_v1v1v1v1
 Adding separable TPDM
 Computing TPDM gradient
 --------------------------------------------------------
 2e gradient
  Atom          X               Y               Z
 --------------------------------------------------------
    1          0.601775        4.325798       -0.000000  
    2          5.244653        0.618097        0.000000  
    3         -8.275031       -7.156654        0.000000  
    4         -0.054528        2.586615        2.337262  
    5         -0.054528        2.586615       -2.337262  
    6          1.268830       -1.480235        2.415100  
    7          1.268830       -1.480235       -2.415100  
 --------------------------------------------------------
 --------------------------------------------------------
 Final gradient
  Atom          X               Y               Z
 --------------------------------------------------------
    1          0.601775        4.325798       -0.000000  
    2          5.244653        0.618097        0.000000  
    3         -8.275031       -7.156654        0.000000  
    4         -0.054528        2.586615        2.337262  
    5         -0.054528        2.586615       -2.337262  
    6          1.268830       -1.480235        2.415100  
    7          1.268830       -1.480235       -2.415100  
 --------------------------------------------------------
 Gradient  CPU 543.30 s  wall 49.85 s
 Total ccman2 time:   CPU 1130.50 s  wall 108.22 s


 --------------------------------------------------------------
             Orbital Energies (a.u.) and Symmetries
 --------------------------------------------------------------

 Alpha MOs, Restricted
 -- Occupied --                  
-19.966 -10.811 -10.694  -0.781  -0.464  -0.322  -0.093  -0.050
  1 A'    2 A'    3 A'    4 A'    5 A'    6 A'    7 A'    8 A'                 
  0.101   0.219  -0.157  -0.036   0.105
  9 A'   10 A'    1 A"    2 A"    3 A"                                         
 -- Virtual --                   
  0.519   0.540   0.714   0.763   0.793   0.946   1.024   1.035
 11 A'   12 A'   13 A'   14 A'   15 A'   16 A'   17 A'   18 A'                 
  1.062   1.097   1.111   1.184   1.269   1.320   1.417   1.460
 19 A'   20 A'   21 A'   22 A'   23 A'   24 A'   25 A'   26 A'                 
  1.646   1.708   1.731   1.762   1.819   1.846   1.924   2.097
 27 A'   28 A'   29 A'   30 A'   31 A'   32 A'   33 A'   34 A'                 
  2.133   2.242   2.385   2.499   2.728   2.861   3.013   3.079
 35 A'   36 A'   37 A'   38 A'   39 A'   40 A'   41 A'   42 A'                 
  3.096   3.208   3.276   3.443   3.518   3.618   3.768   3.773
 43 A'   44 A'   45 A'   46 A'   47 A'   48 A'   49 A'   50 A'                 
  3.873   3.916   3.997   4.033   4.104   4.198   4.294   4.393
 51 A'   52 A'   53 A'   54 A'   55 A'   56 A'   57 A'   58 A'                 
  4.472   4.566   4.597   4.694   4.706   4.778   4.837   4.947
 59 A'   60 A'   61 A'   62 A'   63 A'   64 A'   65 A'   66 A'                 
  4.982   5.137   5.184   5.378   5.447   5.608   5.797   5.836
 67 A'   68 A'   69 A'   70 A'   71 A'   72 A'   73 A'   74 A'                 
  5.990   6.023   6.131   6.231   6.334   6.565   7.004   7.085
 75 A'   76 A'   77 A'   78 A'   79 A'   80 A'   81 A'   82 A'                 
  7.483   7.949   8.044  11.238  12.626  13.574   0.553   0.613
 83 A'   84 A'   85 A'   86 A'   87 A'   88 A'    4 A"    5 A"                 
  0.860   0.903   1.002   1.136   1.244   1.368   1.392   1.560
  6 A"    7 A"    8 A"    9 A"   10 A"   11 A"   12 A"   13 A"                 
  1.639   1.675   1.759   1.906   1.921   1.975   2.077   2.510
 14 A"   15 A"   16 A"   17 A"   18 A"   19 A"   20 A"   21 A"                 
  2.815   2.955   3.218   3.326   3.506   3.621   3.657   3.725
 22 A"   23 A"   24 A"   25 A"   26 A"   27 A"   28 A"   29 A"                 
  3.773   3.858   3.930   3.978   4.022   4.142   4.211   4.261
 30 A"   31 A"   32 A"   33 A"   34 A"   35 A"   36 A"   37 A"                 
  4.327   4.527   4.654   4.722   4.793   4.964   5.068   5.270
 38 A"   39 A"   40 A"   41 A"   42 A"   43 A"   44 A"   45 A"                 
  5.428   5.588   5.681   5.835   5.848   6.225   6.240   6.487
 46 A"   47 A"   48 A"   49 A"   50 A"   51 A"   52 A"   53 A"                 
  6.686   6.790   7.138   7.502   7.959
 54 A"   55 A"   56 A"   57 A"   58 A"                                         

 Beta MOs, Restricted
 -- Occupied --                  
-19.966 -10.811 -10.694  -0.781  -0.464  -0.322  -0.093  -0.050
  1 A'    2 A'    3 A'    4 A'    5 A'    6 A'    7 A'    8 A'                 
  0.101   0.219  -0.157  -0.036   0.105
  9 A'   10 A'    1 A"    2 A"    3 A"                                         
 -- Virtual --                   
  0.519   0.540   0.714   0.763   0.793   0.946   1.024   1.035
 11 A'   12 A'   13 A'   14 A'   15 A'   16 A'   17 A'   18 A'                 
  1.062   1.097   1.111   1.184   1.269   1.320   1.417   1.460
 19 A'   20 A'   21 A'   22 A'   23 A'   24 A'   25 A'   26 A'                 
  1.646   1.708   1.731   1.762   1.819   1.846   1.924   2.097
 27 A'   28 A'   29 A'   30 A'   31 A'   32 A'   33 A'   34 A'                 
  2.133   2.242   2.385   2.499   2.728   2.861   3.013   3.079
 35 A'   36 A'   37 A'   38 A'   39 A'   40 A'   41 A'   42 A'                 
  3.096   3.208   3.276   3.443   3.518   3.618   3.768   3.773
 43 A'   44 A'   45 A'   46 A'   47 A'   48 A'   49 A'   50 A'                 
  3.873   3.916   3.997   4.033   4.104   4.198   4.294   4.393
 51 A'   52 A'   53 A'   54 A'   55 A'   56 A'   57 A'   58 A'                 
  4.472   4.566   4.597   4.694   4.706   4.778   4.837   4.947
 59 A'   60 A'   61 A'   62 A'   63 A'   64 A'   65 A'   66 A'                 
  4.982   5.137   5.184   5.378   5.447   5.608   5.797   5.836
 67 A'   68 A'   69 A'   70 A'   71 A'   72 A'   73 A'   74 A'                 
  5.990   6.023   6.131   6.231   6.334   6.565   7.004   7.085
 75 A'   76 A'   77 A'   78 A'   79 A'   80 A'   81 A'   82 A'                 
  7.483   7.949   8.044  11.238  12.626  13.574   0.553   0.613
 83 A'   84 A'   85 A'   86 A'   87 A'   88 A'    4 A"    5 A"                 
  0.860   0.903   1.002   1.136   1.244   1.368   1.392   1.560
  6 A"    7 A"    8 A"    9 A"   10 A"   11 A"   12 A"   13 A"                 
  1.639   1.675   1.759   1.906   1.921   1.975   2.077   2.510
 14 A"   15 A"   16 A"   17 A"   18 A"   19 A"   20 A"   21 A"                 
  2.815   2.955   3.218   3.326   3.506   3.621   3.657   3.725
 22 A"   23 A"   24 A"   25 A"   26 A"   27 A"   28 A"   29 A"                 
  3.773   3.858   3.930   3.978   4.022   4.142   4.211   4.261
 30 A"   31 A"   32 A"   33 A"   34 A"   35 A"   36 A"   37 A"                 
  4.327   4.527   4.654   4.722   4.793   4.964   5.068   5.270
 38 A"   39 A"   40 A"   41 A"   42 A"   43 A"   44 A"   45 A"                 
  5.428   5.588   5.681   5.835   5.848   6.225   6.240   6.487
 46 A"   47 A"   48 A"   49 A"   50 A"   51 A"   52 A"   53 A"                 
  6.686   6.790   7.138   7.502   7.959
 54 A"   55 A"   56 A"   57 A"   58 A"                                         
 --------------------------------------------------------------

          Ground-State Mulliken Net Atomic Charges

     Atom                 Charge (a.u.)
  ----------------------------------------
      1 C                    -0.003400
      2 C                    -0.416963
      3 O                    -0.229753
      4 H                     0.126745
      5 H                     0.126745
      6 H                     0.198313
      7 H                     0.198313
  ----------------------------------------
  Sum of atomic charges =     0.000000

 -----------------------------------------------------------------
                    Cartesian Multipole Moments
 -----------------------------------------------------------------
    Charge (ESU x 10^10)
                 0.0000
    Dipole Moment (Debye)
         X      -1.1881      Y      -1.1726      Z      -0.0000
       Tot       1.6693
    Quadrupole Moments (Debye-Ang)
        XX     -21.0870     XY      -2.6865     YY     -17.4609
        XZ      -0.0000     YZ       0.0000     ZZ     -17.1349
    Octopole Moments (Debye-Ang^2)
       XXX       5.9180    XXY       1.1016    XYY       0.9252
       YYY      -0.8791    XXZ      -0.0000    XYZ       0.0000
       YYZ      -0.0000    XZZ      -0.2116    YZZ      -0.4447
       ZZZ      -0.0000
    Hexadecapole Moments (Debye-Ang^3)
      XXXX    -126.5911   XXXY      -5.1915   XXYY     -28.2084
      XYYY      -0.6179   YYYY     -45.8935   XXXZ      -0.0000
      XXYZ      -0.0000   XYYZ      -0.0000   YYYZ       0.0000
      XXZZ     -22.9710   XYZZ      -2.2444   YYZZ      -9.6276
      XZZZ      -0.0000   YZZZ       0.0000   ZZZZ     -24.8023
 -----------------------------------------------------------------
 DrvMan completing analytic gradient of the correlated energy
 Correlated dipole moment
            1
    1  -0.4674210
    2  -0.4613214
    3  -0.0000000
 Energy read as -153.382379205
 Full Analytical Gradient: (in a.u., or Hartree/Bohr)
             1             2             3             4             5
    1    0.02695925    0.00696827   -0.03823842   -0.00159383   -0.00159383
    2    0.04652487   -0.01808715   -0.01163312   -0.01937375   -0.01937375
    3    0.00000000   -0.00000000   -0.00000000   -0.00804356    0.00804356
             6             7
    1    0.00374928    0.00374928
    2    0.01097145    0.01097145
    3   -0.00248520    0.00248520
 Gradient time:  CPU 0.85 s  wall 0.96 s

 *****************************************************
             Starting BFGS Algorithm
 *****************************************************
            LIBOPT3 RUN PARAMETERS

  Geometry Optimization Coordinates :
	Delocalized Natural Internal Coordinates

  Step Length Selection Method :
	Eigenvector Following Algorithm

  Step Length Limiter :
	Root-Mean-Square of Gradient

  Convergence Criteria :
	Max Gradient Component    	3.00000000e-04
	Max Displacement Component	1.20000000e-03
	Absolute Energy Difference	1.00000000e-06

  Initial Hessian :
	Approximate Hessian - Model Internal Coordinate

  Type of Verification :
	Verify with final updated Hessian
 *****************************************************

	OPTIMIZATION CYCLE:	1





 Scaling Magnitude of Eigenvalues
 	Minimum: -25.00000000	 Maximum: 25.00000000
 15 Hessian Eigenvalues to form next step
   0.00714320   0.02732171   0.07921684   0.08175927   0.16000000
   0.16000000   0.16000000   0.16000000   0.22581835   0.30815127
   0.31318882   0.31318882   0.34800800   0.34800800   0.56130047


 Minimum Search taking a RFO step
 Searching for Lambda that minimizes along all modes
	Value of Lambda   -0.01859377
	Norm  of Stepsize  0.39381521
	RMS   of Stepsize  0.10168265

	Performing Iterative Coordinate Back-Transformation

	  Starting from Previous Position

	  iter:	0	rms: 1.1929336762e-01	maxdev: 3.8224692024e-01
	  iter:	1	rms: 8.5451890874e-03	maxdev: 2.1604857504e-02
	  iter:	2	rms: 2.4164950743e-05	maxdev: 5.4357322178e-05
	  iter:	3	rms: 0.0000000000e+00	maxdev: 0.0000000000e+00	 Success!

	Finished Iterative Coordinate Back-Transformation
 ----------------------------------------------------------------
             Standard Nuclear Orientation (Angstroms)
    I     Atom           X                Y                Z
 ----------------------------------------------------------------
    1      C       0.1890766143    -0.5298118924     0.0000000000
    2      C      -1.1794010068     0.1624814216     0.0000000000
    3      O       1.2407845383     0.3569061831     0.0000000000
    4      H       0.2274410619    -1.1752317848    -0.8819632595
    5      H       0.2274410619    -1.1752317848     0.8819632595
    6      H      -1.5031886969     0.6344357847    -0.9160030726
    7      H      -1.5031886969     0.6344357847     0.9160030726
 ----------------------------------------------------------------
 Molecular Point Group                 Cs    NOp =  2
 Largest Abelian Subgroup              Cs    NOp =  2
 Nuclear Repulsion Energy =          67.25888434 hartrees
 There are       13 alpha and       13 beta electrons

                       Distance Matrix (Angstroms)
             C (  1)   C (  2)   O (  3)   H (  4)   H (  5)   H (  6)
   C (  2)  1.533623
   O (  3)  1.375630  2.427983
   H (  4)  1.093571  2.132262  2.037688
   H (  5)  1.093571  2.132262  2.037688  1.763927
   H (  6)  2.249066  1.080112  2.906110  2.504223  3.082638
   H (  7)  2.249066  1.080112  2.906110  3.082638  2.504223  1.832006


 Applying Cartesian multipole field
    Component          Value
    ---------          -----
     (2,0,0)        1.00000E-11
     (0,2,0)        2.00000E-10
     (0,0,2)       -3.00000E-10
 Nucleus-field energy     = 2.0378109756e-09 hartrees
 Requested basis set is cc-pVTZ
 There are 54 shells and 146 basis functions
 A cutoff of  1.0D-14 yielded   1482 shell pairs
 There are     10938 function pairs (     14024 Cartesian)
 Smallest overlap matrix eigenvalue = 1.23E-03
 Guess MOs from SCF MO coefficient file

 -----------------------------------------------------------------------
  General SCF calculation program by
  Eric Jon Sundstrom, Paul Horn, Yuezhi Mao, Dmitri Zuev, Alec White,
  David Stuck, Shaama M.S., Shane Yost, Joonho Lee, David Small,
  Daniel Levine, Susi Lehtola, Hugh Burton, Evgeny Epifanovsky,
  Bang C. Huynh
 -----------------------------------------------------------------------
 Hartree-Fock
 A restricted SCF calculation will be
 performed using DIIS
 SCF converges when DIIS error is below 1.0e-08
 User-specified cutoff of 10e-14
 used for neglect of 2-electron integrals.
 A cutoff of 10e-14
 used for neglect of overlap integrals.
 Incremental Fock algorithm is on at the start.
 ---------------------------------------
  Cycle       Energy         DIIS error
 ---------------------------------------
    1    -152.5735187301      2.33e-03  
    2    -152.5903113595      6.79e-04  
    3    -152.5921285553      4.07e-04  
    4    -152.5925754126      9.06e-05  
    5    -152.5926416659      2.49e-05  
    6    -152.5926476054      1.05e-05  
    7    -152.5926489966      4.59e-06  
    8    -152.5926494325      2.08e-06  
    9    -152.5926495689      8.13e-07  
   10    -152.5926495913      2.49e-07  
   11    -152.5926495925      9.44e-08  
   12    -152.5926495927      2.72e-08  
   13    -152.5926495927      6.01e-09  Convergence criterion met
 ---------------------------------------
 SCF time:   CPU 38.60s  wall 3.00s 
 SCF   energy =  -152.59264959
 Total energy =  -152.59264959


 ------------------------------------------------------------------------------

   CCMAN2: suite of methods based on coupled cluster
           and equation of motion theories.

   Components:
   * libvmm-1.3-trunk
     by Evgeny Epifanovsky, Ilya Kaliman.
   * libtensor-2.5-trunk
     by Evgeny Epifanovsky, Michael Wormit, Dmitry Zuev, Sam Manzer, 
        Ilya Kaliman.
   * libcc-2.5-trunk
     by Evgeny Epifanovsky, Arik Landau, Tomasz Kus, Kirill Khistyaev, 
        Dmitry Zuev, Prashant Manohar, Xintian Feng, Anna Krylov, 
        Matthew Goldey, Alec White, Thomas Jagau, Kaushik Nanda, 
        Anastasia Gunina, Alexander Kunitsa, Joonho Lee.

   CCMAN original authors:
   Anna I. Krylov, C. David Sherrill, Steven R. Gwaltney,
   Edward F. C. Byrd (2000)
   Sergey V. Levchenko, Lyudmila V. Slipchenko, Tao Wang,
   Ana-Maria C. Cristian (2003)
   Piotr A. Pieniazek, C. Melania Oana, Evgeny Epifanovsky (2007)
   Prashant Manohar (2009)

 ------------------------------------------------------------------------------


 Allocating and initializing 199808MB of RAM (this may take a while)...
 Calculation will run on 16 cores.


 Alpha MOs, Restricted
 -- Occupied --                  
-19.960 -10.805 -10.698  -0.759  -0.469  -0.323  -0.162  -0.081
  1 A'    2 A'    3 A'    4 A'    5 A'    6 A'    1 A"    7 A'                 
 -0.051  -0.045   0.111   0.112   0.210
  2 A"    8 A'    3 A"    9 A'   10 A'                                         
 -- Virtual --                   
  0.522   0.537   0.551   0.602   0.729   0.762   0.799   0.877
 11 A'   12 A'    4 A"    5 A"   13 A'   14 A'   15 A'    6 A"                 
  0.905   0.948   0.996   1.021   1.038   1.060   1.104   1.107
  7 A"   16 A'   17 A'    8 A"   18 A'   19 A'   20 A'   21 A'                 
  1.144   1.156   1.250   1.286   1.302   1.376   1.390   1.414
  9 A"   22 A'   10 A"   23 A'   24 A'   11 A"   12 A"   25 A'                 
  1.476   1.548   1.608   1.627   1.656   1.712   1.764   1.766
 26 A'   13 A"   27 A'   14 A"   15 A"   28 A'   29 A'   16 A"                 
  1.776   1.792   1.866   1.921   1.931   1.951   1.997   2.080
 30 A'   31 A'   32 A'   17 A"   18 A"   33 A'   19 A"   20 A"                 
  2.133   2.141   2.261   2.328   2.491   2.524   2.727   2.830
 34 A'   35 A'   36 A'   37 A'   38 A'   21 A"   39 A'   22 A"                 
  2.876   2.957   2.974   2.992   3.084   3.175   3.199   3.272
 40 A'   23 A"   41 A'   42 A'   43 A'   44 A'   24 A"   45 A'                 
  3.340   3.432   3.501   3.531   3.611   3.636   3.670   3.734
 25 A"   46 A'   26 A"   47 A'   27 A"   48 A'   28 A"   29 A"                 
  3.737   3.768   3.787   3.853   3.861   3.901   3.911   3.966
 49 A'   50 A'   30 A"   31 A"   51 A'   32 A"   52 A'   33 A"                 
  3.970   4.006   4.049   4.138   4.154   4.166   4.246   4.286
 53 A'   34 A"   54 A'   55 A'   35 A"   56 A'   36 A"   57 A'                 
  4.295   4.392   4.452   4.456   4.506   4.541   4.634   4.685
 37 A"   38 A"   39 A"   58 A'   59 A'   60 A'   61 A'   62 A'                 
  4.692   4.700   4.749   4.758   4.808   4.894   4.939   4.948
 40 A"   41 A"   63 A'   64 A'   42 A"   65 A'   66 A'   43 A"                 
  4.976   5.081   5.106   5.173   5.279   5.435   5.486   5.497
 67 A'   68 A'   44 A"   69 A'   45 A"   70 A'   71 A'   46 A"                 
  5.619   5.624   5.752   5.835   5.846   5.899   5.947   6.011
 72 A'   47 A"   48 A"   73 A'   49 A"   74 A'   50 A"   75 A'                 
  6.048   6.173   6.227   6.242   6.328   6.337   6.519   6.525
 76 A'   77 A'   78 A'   51 A"   79 A'   52 A"   53 A"   80 A'                 
  6.664   6.756   6.949   7.068   7.101   7.471   7.498   7.925
 54 A"   55 A"   81 A'   56 A"   82 A'   83 A'   57 A"   84 A'                 
  7.972   8.045  10.897  12.763  13.563
 58 A"   85 A'   86 A'   87 A'   88 A'                                         

 Beta MOs, Restricted
 -- Occupied --                  
-19.960 -10.805 -10.698  -0.759  -0.469  -0.323  -0.162  -0.081
  1 A'    2 A'    3 A'    4 A'    5 A'    6 A'    1 A"    7 A'                 
 -0.051  -0.045   0.111   0.112   0.210
  2 A"    8 A'    3 A"    9 A'   10 A'                                         
 -- Virtual --                   
  0.522   0.537   0.551   0.602   0.729   0.762   0.799   0.877
 11 A'   12 A'    4 A"    5 A"   13 A'   14 A'   15 A'    6 A"                 
  0.905   0.948   0.996   1.021   1.038   1.060   1.104   1.107
  7 A"   16 A'   17 A'    8 A"   18 A'   19 A'   20 A'   21 A'                 
  1.144   1.156   1.250   1.286   1.302   1.376   1.390   1.414
  9 A"   22 A'   10 A"   23 A'   24 A'   11 A"   12 A"   25 A'                 
  1.476   1.548   1.608   1.627   1.656   1.712   1.764   1.766
 26 A'   13 A"   27 A'   14 A"   15 A"   28 A'   29 A'   16 A"                 
  1.776   1.792   1.866   1.921   1.931   1.951   1.997   2.080
 30 A'   31 A'   32 A'   17 A"   18 A"   33 A'   19 A"   20 A"                 
  2.133   2.141   2.261   2.328   2.491   2.524   2.727   2.830
 34 A'   35 A'   36 A'   37 A'   38 A'   21 A"   39 A'   22 A"                 
  2.876   2.957   2.974   2.992   3.084   3.175   3.199   3.272
 40 A'   23 A"   41 A'   42 A'   43 A'   44 A'   24 A"   45 A'                 
  3.340   3.432   3.501   3.531   3.611   3.636   3.670   3.734
 25 A"   46 A'   26 A"   47 A'   27 A"   48 A'   28 A"   29 A"                 
  3.737   3.768   3.787   3.853   3.861   3.901   3.911   3.966
 49 A'   50 A'   30 A"   31 A"   51 A'   32 A"   52 A'   33 A"                 
  3.970   4.006   4.049   4.138   4.154   4.166   4.246   4.286
 53 A'   34 A"   54 A'   55 A'   35 A"   56 A'   36 A"   57 A'                 
  4.295   4.392   4.452   4.456   4.506   4.541   4.634   4.685
 37 A"   38 A"   39 A"   58 A'   59 A'   60 A'   61 A'   62 A'                 
  4.692   4.700   4.749   4.758   4.808   4.894   4.939   4.948
 40 A"   41 A"   63 A'   64 A'   42 A"   65 A'   66 A'   43 A"                 
  4.976   5.081   5.106   5.173   5.279   5.435   5.486   5.497
 67 A'   68 A'   44 A"   69 A'   45 A"   70 A'   71 A'   46 A"                 
  5.619   5.624   5.752   5.835   5.846   5.899   5.947   6.011
 72 A'   47 A"   48 A"   73 A'   49 A"   74 A'   50 A"   75 A'                 
  6.048   6.173   6.227   6.242   6.328   6.337   6.519   6.525
 76 A'   77 A'   78 A'   51 A"   79 A'   52 A"   53 A"   80 A'                 
  6.664   6.756   6.949   7.068   7.101   7.471   7.498   7.925
 54 A"   55 A"   81 A'   56 A"   82 A'   83 A'   57 A"   84 A'                 
  7.972   8.045  10.897  12.763  13.563
 58 A"   85 A'   86 A'   87 A'   88 A'                                         

 Occupation and symmetry of molecular orbitals

 Point group: Cs (2 irreducible representations).

                           A'   A"    All 
 ------------------------------------------
 All molecular orbitals:
  - Alpha                  88   58    146 
  - Beta                   88   58    146 
 ------------------------------------------
 Alpha orbitals:
  - Frozen occupied        3    0     3   
  - Active occupied        7    3     10  
  - Active virtual         78   55    133 
  - Frozen virtual         0    0     0   
 ------------------------------------------
 Beta orbitals:
  - Frozen occupied        3    0     3   
  - Active occupied        7    3     10  
  - Active virtual         78   55    133 
  - Frozen virtual         0    0     0   
 ------------------------------------------

 Import integrals:   CPU 0.00 s  wall 0.00 s

 Import integrals:   CPU 36.90 s  wall 4.24 s


 MP2  CPU 0.34 s  wall 0.23 s
Running a double precision version
           CCSD T amplitudes will be solved using DIIS.

           Start     Size      MaxIter   EConv     TConv     
           3         7         100       1.00e-07  1.00e-05  
 ------------------------------------------------------------------------------
           Energy (a.u.)   Ediff      Tdiff       Comment
 ------------------------------------------------------------------------------
          -153.21717977                           
     1    -153.21565668   1.52e-03   7.27e-01     
     2    -153.23212019   1.65e-02   8.74e-02     
     3    -153.23180919   3.11e-04   2.96e-02     
     4    -153.23315114   1.34e-03   1.73e-02     Switched to DIIS steps.
     5    -153.23384505   6.94e-04   7.30e-03     
     6    -153.23390474   5.97e-05   2.18e-03     
     7    -153.23391915   1.44e-05   1.62e-03     
     8    -153.23392685   7.70e-06   7.55e-04     
     9    -153.23393103   4.18e-06   4.61e-04     
    10    -153.23393160   5.75e-07   2.29e-04     
    11    -153.23393354   1.94e-06   1.39e-04     
    12    -153.23393308   4.58e-07   8.32e-05     
    13    -153.23393280   2.86e-07   2.67e-05     
    14    -153.23393259   2.04e-07   1.28e-05     
    15    -153.23393250   9.60e-08   6.91e-06     
 ------------------------------------------------------------------------------
          -153.23393250                           CCSD T converged.

 End of double precision
 SCF energy                 = -152.59264959
 MP2 energy                 = -153.21717977
 CCSD correlation energy    =   -0.64128290
 CCSD total energy          = -153.23393250

 CCSD  T1^2 = 0.0101  T2^2 = 0.2097  Leading amplitudes:

 Amplitude    Orbitals with energies
  0.0296       9 (A') A                  ->    11 (A') A                  
               0.1124                          0.5218                     
  0.0296       9 (A') B                  ->    11 (A') B                  
               0.1124                          0.5218                     
 -0.0224       3 (A") A                  ->    5 (A") A                   
               0.1112                          0.6018                     
 -0.0224       3 (A") B                  ->    5 (A") B                   
               0.1112                          0.6018                     

 Amplitude    Orbitals with energies
 -0.0479       10 (A') A     10 (A') B   ->    16 (A') A     16 (A') B    
               0.2096        0.2096            0.9484        0.9484       
  0.0479       10 (A') A     10 (A') B   ->    16 (A') B     16 (A') A    
               0.2096        0.2096            0.9484        0.9484       
  0.0479       10 (A') B     10 (A') A   ->    16 (A') A     16 (A') B    
               0.2096        0.2096            0.9484        0.9484       
 -0.0479       10 (A') B     10 (A') A   ->    16 (A') B     16 (A') A    
               0.2096        0.2096            0.9484        0.9484       

 Computing CCSD intermediates for later calculations in double precision
 Finished.


 CCSD  CPU 236.70 s  wall 21.40 s

 EOMEE-CCSD  CPU 1.10 s  wall 0.39 s
        Solving for EOMDIP-CCSD A' transitions to triplet states

           EOMDIP-CCSD right amplitudes will be solved using Davidson.
        Amplitudes will be solved using standard  algorithm.
     Hard-coded thresholds: 
     LinDepThresh=1.00e-15  NormThresh=1.00e-06  ReorthogonThresh=1.00e-02

      Roots     MaxVec    MaxIter   Precond   Conv      Shift    
      1         120       60        1         1.00e-06  0.00e+00  
 ------------------------------------------------------------------------------
      Iter ConvRoots NVecs ResNorm^2 Current eigenvalues (eV)
 ------------------------------------------------------------------------------
      0    0      1     3.32e-01   1.8907   
      1    0      2     1.66e-01   -2.6457   
      2    0      3     5.18e-03   -4.1976   
      3    0      4     1.21e-03   -4.3008   
      4    0      5     3.19e-04   -4.3247   
      5    0      6     7.76e-05   -4.3257   
      6    0      7     1.13e-05   -4.3292   
      7    0      8     1.37e-06   -4.3295   
      8    1      9     2.08e-07   -4.3294*  

     Davidson procedure converged

 EOMDIP-CCSD transition 1/A'
 Total energy = -153.39303406 a.u.  Excitation energy = -4.3294 eV.
 R2^2 = 0.8838  R3^2 = 0.1162  Res^2 = 2.08e-07
 Conv-d = yes

 Amplitude    Transitions between orbitals
 -0.6524       9 (A') A      10 (A') B                 ->    infty        
 -0.6524       9 (A') B      10 (A') A                 ->    infty        
 -0.1060       7 (A') A      10 (A') B                 ->    infty        
 -0.1060       7 (A') B      10 (A') A                 ->    infty        

              Summary of significant orbitals:

               Number  Type             Irrep      Energy
               8       Occ  Alpha       7 (A')     -0.0813
               12      Occ  Alpha       9 (A')      0.1124
               13      Occ  Alpha      10 (A')      0.2096
               8       Occ  Beta        7 (A')     -0.0813
               12      Occ  Beta        9 (A')      0.1124
               13      Occ  Beta       10 (A')      0.2096


           EOMDIP-CCSD left amplitudes will be solved using Davidson.
        Amplitudes will be solved using MOM  algorithm.
     Hard-coded thresholds: 
     LinDepThresh=1.00e-15  NormThresh=1.00e-06  ReorthogonThresh=1.00e-02

      Roots     MaxVec    MaxIter   Precond   Conv      Shift    
      1         120       60        1         1.00e-06  0.00e+00  
 ------------------------------------------------------------------------------
      Iter ConvRoots NVecs ResNorm^2 Current eigenvalues (eV)
 ------------------------------------------------------------------------------
      0    0      1     1.14e-02   -4.3294   
      1    0      2     3.79e-03   -4.3294   
      2    0      3     6.20e-05   -4.3294   
      3    0      4     1.01e-05   -4.3294   
      4    0      5     1.11e-06   -4.3294   
      5    1      6     2.07e-07   -4.3294*  

     Davidson procedure converged

Running a double precision version
           EOM amplitude response will be solved using DIIS.
           Start     Size      MaxIter   EConv     ZConv     
           3         7         100       1.00e-06  1.00e-06  
 ------------------------------------------------------------------------------
            Enorm      Zdiff       Comment
 ------------------------------------------------------------------------------
     1     6.85e-02   4.80e-02     
     2     2.83e-02   1.82e-02     
     3     1.57e-02   8.41e-03     
     4     6.12e-03   9.14e-03     Switched to DIIS steps.
     5     3.48e-03   2.17e-03     
     6     1.95e-03   1.72e-03     
     7     8.77e-04   9.66e-04     
     8     5.61e-04   1.31e-04     
     9     2.69e-04   2.43e-04     
    10     1.37e-04   2.70e-05     
    11     5.28e-05   1.22e-05     
    12     2.37e-05   6.61e-06     
    13     1.04e-05   1.43e-06     
    14     5.58e-06   2.09e-06     
    15     2.60e-06   1.03e-06     
    16     1.07e-06   3.77e-07     
    17     5.82e-07   8.35e-08     
 ------------------------------------------------------------------------------
                                   Amplitude response converged.

           Orbital response amplitudes will be solved using DIIS.
           Start     Size      MaxIter   EConv     LConv     
           3         7         100       1.00e-06  1.00e-06  
 ------------------------------------------------------------------------------
            Enorm      Ldiff       Comment
 ------------------------------------------------------------------------------
     1     4.53e-01   2.23e-01     
     2     4.97e-01   1.44e-01     
     3     6.13e-01   2.57e-01     
     4     1.88e-02   3.03e-01     Switched to DIIS steps.
     5     5.71e-03   3.57e-04     
     6     1.06e-03   1.02e-03     
     7     2.22e-04   2.78e-05     
     8     7.13e-05   3.67e-05     
     9     3.16e-05   4.48e-06     
    10     6.28e-06   4.82e-06     
    11     2.76e-06   5.49e-07     
    12     8.65e-07   1.08e-06     
    13     7.17e-07   1.89e-08     
 ------------------------------------------------------------------------------
                                   Orbital response converged.


 EOMDIP-CCSD  CPU 280.73 s  wall 26.82 s
 Transferring MO TPDM to AO TPDM
 Transferring g2_o1o1o1o1
 Transferring g2_o1o1o1v1
 Transferring g2_o1o1v1v1
 Transferring g2_o1v1o1v1
 Transferring g2_o1v1v1v1
 Transferring g2_v1v1v1v1
 Adding separable TPDM
 Computing TPDM gradient
 --------------------------------------------------------
 2e gradient
  Atom          X               Y               Z
 --------------------------------------------------------
    1          1.299627        3.266823        0.000000  
    2          4.793251        0.072464        0.000000  
    3         -8.970545       -5.662898       -0.000000  
    4         -0.026462        2.443554        2.437137  
    5         -0.026462        2.443554       -2.437137  
    6          1.465295       -1.281749        2.473269  
    7          1.465295       -1.281749       -2.473269  
 --------------------------------------------------------
 --------------------------------------------------------
 Final gradient
  Atom          X               Y               Z
 --------------------------------------------------------
    1          1.299627        3.266823        0.000000  
    2          4.793251        0.072464        0.000000  
    3         -8.970545       -5.662898       -0.000000  
    4         -0.026462        2.443554        2.437137  
    5         -0.026462        2.443554       -2.437137  
    6          1.465295       -1.281749        2.473269  
    7          1.465295       -1.281749       -2.473269  
 --------------------------------------------------------
 Gradient  CPU 628.78 s  wall 56.98 s
 Total ccman2 time:   CPU 1247.02 s  wall 115.93 s


 --------------------------------------------------------------
             Orbital Energies (a.u.) and Symmetries
 --------------------------------------------------------------

 Alpha MOs, Restricted
 -- Occupied --                  
-19.960 -10.805 -10.698  -0.759  -0.469  -0.323  -0.081  -0.045
  1 A'    2 A'    3 A'    4 A'    5 A'    6 A'    7 A'    8 A'                 
  0.112   0.210  -0.162  -0.051   0.111
  9 A'   10 A'    1 A"    2 A"    3 A"                                         
 -- Virtual --                   
  0.522   0.537   0.729   0.762   0.799   0.948   0.996   1.038
 11 A'   12 A'   13 A'   14 A'   15 A'   16 A'   17 A'   18 A'                 
  1.060   1.104   1.107   1.156   1.286   1.302   1.414   1.476
 19 A'   20 A'   21 A'   22 A'   23 A'   24 A'   25 A'   26 A'                 
  1.608   1.712   1.764   1.776   1.792   1.866   1.951   2.133
 27 A'   28 A'   29 A'   30 A'   31 A'   32 A'   33 A'   34 A'                 
  2.141   2.261   2.328   2.491   2.727   2.876   2.974   2.992
 35 A'   36 A'   37 A'   38 A'   39 A'   40 A'   41 A'   42 A'                 
  3.084   3.175   3.272   3.432   3.531   3.636   3.737   3.768
 43 A'   44 A'   45 A'   46 A'   47 A'   48 A'   49 A'   50 A'                 
  3.861   3.911   3.970   4.049   4.138   4.166   4.286   4.456
 51 A'   52 A'   53 A'   54 A'   55 A'   56 A'   57 A'   58 A'                 
  4.506   4.541   4.634   4.685   4.749   4.758   4.894   4.939
 59 A'   60 A'   61 A'   62 A'   63 A'   64 A'   65 A'   66 A'                 
  4.976   5.081   5.173   5.435   5.486   5.619   5.835   5.899
 67 A'   68 A'   69 A'   70 A'   71 A'   72 A'   73 A'   74 A'                 
  6.011   6.048   6.173   6.227   6.328   6.525   6.949   7.101
 75 A'   76 A'   77 A'   78 A'   79 A'   80 A'   81 A'   82 A'                 
  7.471   7.925   8.045  10.897  12.763  13.563   0.551   0.602
 83 A'   84 A'   85 A'   86 A'   87 A'   88 A'    4 A"    5 A"                 
  0.877   0.905   1.021   1.144   1.250   1.376   1.390   1.548
  6 A"    7 A"    8 A"    9 A"   10 A"   11 A"   12 A"   13 A"                 
  1.627   1.656   1.766   1.921   1.931   1.997   2.080   2.524
 14 A"   15 A"   16 A"   17 A"   18 A"   19 A"   20 A"   21 A"                 
  2.830   2.957   3.199   3.340   3.501   3.611   3.670   3.734
 22 A"   23 A"   24 A"   25 A"   26 A"   27 A"   28 A"   29 A"                 
  3.787   3.853   3.901   3.966   4.006   4.154   4.246   4.295
 30 A"   31 A"   32 A"   33 A"   34 A"   35 A"   36 A"   37 A"                 
  4.392   4.452   4.692   4.700   4.808   4.948   5.106   5.279
 38 A"   39 A"   40 A"   41 A"   42 A"   43 A"   44 A"   45 A"                 
  5.497   5.624   5.752   5.846   5.947   6.242   6.337   6.519
 46 A"   47 A"   48 A"   49 A"   50 A"   51 A"   52 A"   53 A"                 
  6.664   6.756   7.068   7.498   7.972
 54 A"   55 A"   56 A"   57 A"   58 A"                                         

 Beta MOs, Restricted
 -- Occupied --                  
-19.960 -10.805 -10.698  -0.759  -0.469  -0.323  -0.081  -0.045
  1 A'    2 A'    3 A'    4 A'    5 A'    6 A'    7 A'    8 A'                 
  0.112   0.210  -0.162  -0.051   0.111
  9 A'   10 A'    1 A"    2 A"    3 A"                                         
 -- Virtual --                   
  0.522   0.537   0.729   0.762   0.799   0.948   0.996   1.038
 11 A'   12 A'   13 A'   14 A'   15 A'   16 A'   17 A'   18 A'                 
  1.060   1.104   1.107   1.156   1.286   1.302   1.414   1.476
 19 A'   20 A'   21 A'   22 A'   23 A'   24 A'   25 A'   26 A'                 
  1.608   1.712   1.764   1.776   1.792   1.866   1.951   2.133
 27 A'   28 A'   29 A'   30 A'   31 A'   32 A'   33 A'   34 A'                 
  2.141   2.261   2.328   2.491   2.727   2.876   2.974   2.992
 35 A'   36 A'   37 A'   38 A'   39 A'   40 A'   41 A'   42 A'                 
  3.084   3.175   3.272   3.432   3.531   3.636   3.737   3.768
 43 A'   44 A'   45 A'   46 A'   47 A'   48 A'   49 A'   50 A'                 
  3.861   3.911   3.970   4.049   4.138   4.166   4.286   4.456
 51 A'   52 A'   53 A'   54 A'   55 A'   56 A'   57 A'   58 A'                 
  4.506   4.541   4.634   4.685   4.749   4.758   4.894   4.939
 59 A'   60 A'   61 A'   62 A'   63 A'   64 A'   65 A'   66 A'                 
  4.976   5.081   5.173   5.435   5.486   5.619   5.835   5.899
 67 A'   68 A'   69 A'   70 A'   71 A'   72 A'   73 A'   74 A'                 
  6.011   6.048   6.173   6.227   6.328   6.525   6.949   7.101
 75 A'   76 A'   77 A'   78 A'   79 A'   80 A'   81 A'   82 A'                 
  7.471   7.925   8.045  10.897  12.763  13.563   0.551   0.602
 83 A'   84 A'   85 A'   86 A'   87 A'   88 A'    4 A"    5 A"                 
  0.877   0.905   1.021   1.144   1.250   1.376   1.390   1.548
  6 A"    7 A"    8 A"    9 A"   10 A"   11 A"   12 A"   13 A"                 
  1.627   1.656   1.766   1.921   1.931   1.997   2.080   2.524
 14 A"   15 A"   16 A"   17 A"   18 A"   19 A"   20 A"   21 A"                 
  2.830   2.957   3.199   3.340   3.501   3.611   3.670   3.734
 22 A"   23 A"   24 A"   25 A"   26 A"   27 A"   28 A"   29 A"                 
  3.787   3.853   3.901   3.966   4.006   4.154   4.246   4.295
 30 A"   31 A"   32 A"   33 A"   34 A"   35 A"   36 A"   37 A"                 
  4.392   4.452   4.692   4.700   4.808   4.948   5.106   5.279
 38 A"   39 A"   40 A"   41 A"   42 A"   43 A"   44 A"   45 A"                 
  5.497   5.624   5.752   5.846   5.947   6.242   6.337   6.519
 46 A"   47 A"   48 A"   49 A"   50 A"   51 A"   52 A"   53 A"                 
  6.664   6.756   7.068   7.498   7.972
 54 A"   55 A"   56 A"   57 A"   58 A"                                         
 --------------------------------------------------------------

          Ground-State Mulliken Net Atomic Charges

     Atom                 Charge (a.u.)
  ----------------------------------------
      1 C                    -0.003238
      2 C                    -0.429138
      3 O                    -0.235788
      4 H                     0.128440
      5 H                     0.128440
      6 H                     0.205642
      7 H                     0.205642
  ----------------------------------------
  Sum of atomic charges =     0.000000

 -----------------------------------------------------------------
                    Cartesian Multipole Moments
 -----------------------------------------------------------------
    Charge (ESU x 10^10)
                -0.0000
    Dipole Moment (Debye)
         X      -1.6446      Y      -0.9709      Z      -0.0000
       Tot       1.9098
    Quadrupole Moments (Debye-Ang)
        XX     -21.1635     XY      -2.5874     YY     -17.6819
        XZ      -0.0000     YZ       0.0000     ZZ     -17.1088
    Octopole Moments (Debye-Ang^2)
       XXX      -0.3153    XXY       1.1745    XYY       0.4256
       YYY       0.4227    XXZ      -0.0000    XYZ       0.0000
       YYZ      -0.0000    XZZ      -1.5976    YZZ      -0.0428
       ZZZ      -0.0000
    Hexadecapole Moments (Debye-Ang^3)
      XXXX    -141.0179   XXXY      -4.7876   XXYY     -29.8471
      XYYY       1.4937   YYYY     -43.0769   XXXZ       0.0000
      XXYZ      -0.0000   XYYZ       0.0000   YYYZ       0.0000
      XXZZ     -25.2009   XYZZ      -1.7833   YYZZ      -9.4845
      XZZZ      -0.0000   YZZZ       0.0000   ZZZZ     -25.1912
 -----------------------------------------------------------------
 DrvMan completing analytic gradient of the correlated energy
 Correlated dipole moment
            1
    1  -0.6470299
    2  -0.3819906
    3  -0.0000000
 Energy read as -153.393034062
 Full Analytical Gradient: (in a.u., or Hartree/Bohr)
             1             2             3             4             5
    1    0.02031556   -0.01209986   -0.00937442   -0.00045478   -0.00045478
    2    0.01759783   -0.01063918   -0.00818108   -0.00507930   -0.00507930
    3   -0.00000000    0.00000000    0.00000000    0.00051711   -0.00051711
             6             7
    1    0.00103414    0.00103414
    2    0.00569051    0.00569051
    3   -0.00053029    0.00053029
 Gradient time:  CPU 1.71 s  wall 1.68 s

     Step 1	:
        Energy is -153.3930340624
                            Maximum         Tolerance       Converged?
         Gradient           1.30503411e-02	3.00000000e-04	false
         Displacement       2.62735278e-01	1.20000000e-03	false
         Energy change      1.06548569e-02	1.00000000e-06	false


	OPTIMIZATION CYCLE:	2





 Scaling Magnitude of Eigenvalues
 	Minimum: -25.00000000	 Maximum: 25.00000000
 15 Hessian Eigenvalues to form next step
   0.00714320   0.02574866   0.07843012   0.07921684   0.15875895
   0.16000000   0.16000000   0.16025031   0.23915073   0.30180648
   0.31318882   0.34382331   0.34800800   0.34882642   0.52788601


 Minimum Search taking a RFO step
 Searching for Lambda that minimizes along all modes
	Value of Lambda   -0.00328294
	Norm  of Stepsize  0.28667154
	RMS   of Stepsize  0.07401827

	Performing Iterative Coordinate Back-Transformation

	  Starting from Previous Position

	  iter:	0	rms: 4.1548363588e-02	maxdev: 7.2845738675e-02
	  iter:	1	rms: 2.3435260310e-03	maxdev: 5.2104710070e-03
	  iter:	2	rms: 1.8220223171e-06	maxdev: 3.8571644290e-06
	  iter:	3	rms: 0.0000000000e+00	maxdev: 0.0000000000e+00	 Success!

	Finished Iterative Coordinate Back-Transformation
 ----------------------------------------------------------------
             Standard Nuclear Orientation (Angstroms)
    I     Atom           X                Y                Z
 ----------------------------------------------------------------
    1      C       0.1853345141    -0.5300980960     0.0000000000
    2      C      -1.1436135292     0.1992561411     0.0000000000
    3      O       1.2779696228     0.3325866769     0.0000000000
    4      H       0.2097671284    -1.1473737734    -0.8934995663
    5      H       0.2097671284    -1.1473737734     0.8934995663
    6      H      -1.5201299943     0.6004932684    -0.9230290240
    7      H      -1.5201299943     0.6004932684     0.9230290240
 ----------------------------------------------------------------
 Molecular Point Group                 Cs    NOp =  2
 Largest Abelian Subgroup              Cs    NOp =  2
 Nuclear Repulsion Energy =          67.26974546 hartrees
 There are       13 alpha and       13 beta electrons

                       Distance Matrix (Angstroms)
             C (  1)   C (  2)   O (  3)   H (  4)   H (  5)   H (  6)
   C (  2)  1.515936
   O (  3)  1.392148  2.425251
   H (  4)  1.086263  2.107936  2.032162
   H (  5)  1.086263  2.107936  2.032162  1.786999
   H (  6)  2.244734  1.074588  2.958567  2.459361  3.057345
   H (  7)  2.244734  1.074588  2.958567  3.057345  2.459361  1.846058


 Applying Cartesian multipole field
    Component          Value
    ---------          -----
     (2,0,0)        1.00000E-11
     (0,2,0)        2.00000E-10
     (0,0,2)       -3.00000E-10
 Nucleus-field energy     = 1.7881900222e-09 hartrees
 Requested basis set is cc-pVTZ
 There are 54 shells and 146 basis functions
 A cutoff of  1.0D-14 yielded   1482 shell pairs
 There are     10938 function pairs (     14024 Cartesian)
 Smallest overlap matrix eigenvalue = 1.13E-03
 Guess MOs from SCF MO coefficient file

 -----------------------------------------------------------------------
  General SCF calculation program by
  Eric Jon Sundstrom, Paul Horn, Yuezhi Mao, Dmitri Zuev, Alec White,
  David Stuck, Shaama M.S., Shane Yost, Joonho Lee, David Small,
  Daniel Levine, Susi Lehtola, Hugh Burton, Evgeny Epifanovsky,
  Bang C. Huynh
 -----------------------------------------------------------------------
 Hartree-Fock
 A restricted SCF calculation will be
 performed using DIIS
 SCF converges when DIIS error is below 1.0e-08
 User-specified cutoff of 10e-14
 used for neglect of 2-electron integrals.
 A cutoff of 10e-14
 used for neglect of overlap integrals.
 Incremental Fock algorithm is on at the start.
 ---------------------------------------
  Cycle       Energy         DIIS error
 ---------------------------------------
    1    -152.5822240175      9.74e-04  
    2    -152.5851003283      2.96e-04  
    3    -152.5853734436      1.79e-04  
    4    -152.5854541458      3.18e-05  
    5    -152.5854641380      9.42e-06  
    6    -152.5854651887      3.37e-06  
    7    -152.5854653878      1.40e-06  
    8    -152.5854654181      5.47e-07  
    9    -152.5854654249      1.74e-07  
   10    -152.5854654255      8.16e-08  
   11    -152.5854654256      4.16e-08  
   12    -152.5854654257      1.71e-08  
   13    -152.5854654257      3.98e-09  Convergence criterion met
 ---------------------------------------
 SCF time:   CPU 35.48s  wall 4.00s 
 SCF   energy =  -152.58546543
 Total energy =  -152.58546543


 ------------------------------------------------------------------------------

   CCMAN2: suite of methods based on coupled cluster
           and equation of motion theories.

   Components:
   * libvmm-1.3-trunk
     by Evgeny Epifanovsky, Ilya Kaliman.
   * libtensor-2.5-trunk
     by Evgeny Epifanovsky, Michael Wormit, Dmitry Zuev, Sam Manzer, 
        Ilya Kaliman.
   * libcc-2.5-trunk
     by Evgeny Epifanovsky, Arik Landau, Tomasz Kus, Kirill Khistyaev, 
        Dmitry Zuev, Prashant Manohar, Xintian Feng, Anna Krylov, 
        Matthew Goldey, Alec White, Thomas Jagau, Kaushik Nanda, 
        Anastasia Gunina, Alexander Kunitsa, Joonho Lee.

   CCMAN original authors:
   Anna I. Krylov, C. David Sherrill, Steven R. Gwaltney,
   Edward F. C. Byrd (2000)
   Sergey V. Levchenko, Lyudmila V. Slipchenko, Tao Wang,
   Ana-Maria C. Cristian (2003)
   Piotr A. Pieniazek, C. Melania Oana, Evgeny Epifanovsky (2007)
   Prashant Manohar (2009)

 ------------------------------------------------------------------------------


 Allocating and initializing 199808MB of RAM (this may take a while)...
 Calculation will run on 16 cores.


 Alpha MOs, Restricted
 -- Occupied --                  
-19.954 -10.801 -10.694  -0.747  -0.472  -0.320  -0.167  -0.080
  1 A'    2 A'    3 A'    4 A'    5 A'    6 A'    1 A"    7 A'                 
 -0.055  -0.037   0.115   0.118   0.215
  2 A"    8 A'    3 A"    9 A'   10 A'                                         
 -- Virtual --                   
  0.523   0.539   0.548   0.597   0.731   0.762   0.796   0.884
 11 A'   12 A'    4 A"    5 A"   13 A'   14 A'   15 A'    6 A"                 
  0.927   0.945   0.983   1.028   1.040   1.062   1.101   1.111
  7 A"   16 A'   17 A'    8 A"   18 A'   19 A'   20 A'   21 A'                 
  1.152   1.157   1.250   1.293   1.313   1.375   1.396   1.423
  9 A"   22 A'   10 A"   23 A'   24 A'   11 A"   12 A"   25 A'                 
  1.492   1.538   1.609   1.626   1.648   1.698   1.770   1.781
 26 A'   13 A"   27 A'   14 A"   15 A"   28 A'   29 A'   30 A'                 
  1.786   1.805   1.885   1.920   1.941   1.946   2.008   2.085
 16 A"   31 A'   32 A'   17 A"   18 A"   33 A'   19 A"   20 A"                 
  2.105   2.156   2.264   2.337   2.497   2.541   2.718   2.832
 34 A'   35 A'   36 A'   37 A'   38 A'   21 A"   39 A'   22 A"                 
  2.873   2.938   2.987   2.989   3.095   3.189   3.195   3.263
 40 A'   41 A'   42 A'   23 A"   43 A'   24 A"   44 A'   45 A'                 
  3.345   3.462   3.514   3.529   3.596   3.662   3.669   3.734
 25 A"   46 A'   26 A"   47 A'   27 A"   48 A'   28 A"   49 A'                 
  3.742   3.778   3.793   3.816   3.859   3.908   3.919   3.958
 29 A"   50 A'   30 A"   31 A"   51 A'   32 A"   52 A'   33 A"                 
  3.970   4.021   4.029   4.153   4.161   4.194   4.244   4.269
 53 A'   34 A"   54 A'   35 A"   55 A'   56 A'   36 A"   57 A'                 
  4.330   4.405   4.458   4.475   4.528   4.543   4.650   4.667
 37 A"   38 A"   39 A"   58 A'   59 A'   60 A'   61 A'   40 A"                 
  4.690   4.735   4.770   4.781   4.841   4.890   4.927   4.948
 62 A'   41 A"   63 A'   64 A'   42 A"   65 A'   43 A"   66 A'                 
  5.004   5.071   5.131   5.163   5.292   5.447   5.538   5.554
 67 A'   68 A'   44 A"   69 A'   45 A"   70 A'   71 A'   46 A"                 
  5.606   5.660   5.758   5.840   5.871   5.917   5.994   6.002
 72 A'   47 A"   48 A"   73 A'   49 A"   74 A'   75 A'   50 A"                 
  6.055   6.225   6.244   6.248   6.363   6.429   6.519   6.527
 76 A'   77 A'   51 A"   78 A'   79 A'   52 A"   53 A"   80 A'                 
  6.661   6.767   6.918   7.041   7.104   7.475   7.503   7.911
 54 A"   55 A"   81 A'   56 A"   82 A'   83 A'   57 A"   84 A'                 
  7.975   8.054  10.808  12.839  13.744
 58 A"   85 A'   86 A'   87 A'   88 A'                                         

 Beta MOs, Restricted
 -- Occupied --                  
-19.954 -10.801 -10.694  -0.747  -0.472  -0.320  -0.167  -0.080
  1 A'    2 A'    3 A'    4 A'    5 A'    6 A'    1 A"    7 A'                 
 -0.055  -0.037   0.115   0.118   0.215
  2 A"    8 A'    3 A"    9 A'   10 A'                                         
 -- Virtual --                   
  0.523   0.539   0.548   0.597   0.731   0.762   0.796   0.884
 11 A'   12 A'    4 A"    5 A"   13 A'   14 A'   15 A'    6 A"                 
[...]
    16    -153.22363532   1.01e-07   5.20e-06     
    17    -153.22363531   5.41e-09   2.34e-06     
 ------------------------------------------------------------------------------
          -153.22363531                           CCSD T converged.

 End of double precision
 SCF energy                 = -152.58140637
 MP2 energy                 = -153.20740024
 CCSD correlation energy    =   -0.64222894
 CCSD total energy          = -153.22363531

 CCSD  T1^2 = 0.0101  T2^2 = 0.2095  Leading amplitudes:

 Amplitude    Orbitals with energies
  0.0333       9 (A') A                  ->    11 (A') A                  
               0.1200                          0.5220                     
  0.0333       9 (A') B                  ->    11 (A') B                  
               0.1200                          0.5220                     
 -0.0220       3 (A") A                  ->    5 (A") A                   
               0.1178                          0.5933                     
 -0.0220       3 (A") B                  ->    5 (A") B                   
               0.1178                          0.5933                     

 Amplitude    Orbitals with energies
 -0.0525       10 (A') A     10 (A') B   ->    16 (A') A     16 (A') B    
               0.2167        0.2167            0.9409        0.9409       
  0.0525       10 (A') A     10 (A') B   ->    16 (A') B     16 (A') A    
               0.2167        0.2167            0.9409        0.9409       
  0.0525       10 (A') B     10 (A') A   ->    16 (A') A     16 (A') B    
               0.2167        0.2167            0.9409        0.9409       
 -0.0525       10 (A') B     10 (A') A   ->    16 (A') B     16 (A') A    
               0.2167        0.2167            0.9409        0.9409       

 Computing CCSD intermediates for later calculations in double precision
 Finished.


 CCSD  CPU 253.35 s  wall 23.37 s

 EOMEE-CCSD  CPU 0.79 s  wall 0.37 s
        Solving for EOMDIP-CCSD A' transitions to triplet states

           EOMDIP-CCSD right amplitudes will be solved using Davidson.
        Amplitudes will be solved using standard  algorithm.
     Hard-coded thresholds: 
     LinDepThresh=1.00e-15  NormThresh=1.00e-06  ReorthogonThresh=1.00e-02

      Roots     MaxVec    MaxIter   Precond   Conv      Shift    
      1         120       60        1         1.00e-06  0.00e+00  
 ------------------------------------------------------------------------------
      Iter ConvRoots NVecs ResNorm^2 Current eigenvalues (eV)
 ------------------------------------------------------------------------------
      0    0      1     3.39e-01   1.5664   
      1    0      2     1.66e-01   -3.0112   
      2    0      3     4.49e-03   -4.5624   
      3    0      4     1.11e-03   -4.6536   
      4    0      5     2.94e-04   -4.6740   
      5    0      6     6.67e-05   -4.6756   
      6    0      7     1.09e-05   -4.6789   
      7    0      8     1.27e-06   -4.6791   
      8    1      9     2.45e-07   -4.6790*  

     Davidson procedure converged

 EOMDIP-CCSD transition 1/A'
 Total energy = -153.39558491 a.u.  Excitation energy = -4.6790 eV.
 R2^2 = 0.8844  R3^2 = 0.1156  Res^2 = 2.45e-07
 Conv-d = yes

 Amplitude    Transitions between orbitals
  0.6547       9 (A') A      10 (A') B                 ->    infty        
  0.6547       9 (A') B      10 (A') A                 ->    infty        
  0.0955       7 (A') A      10 (A') B                 ->    infty        
  0.0955       7 (A') B      10 (A') A                 ->    infty        

              Summary of significant orbitals:

               Number  Type             Irrep      Energy
               8       Occ  Alpha       7 (A')     -0.0818
               12      Occ  Alpha       9 (A')      0.1200
               13      Occ  Alpha      10 (A')      0.2167
               8       Occ  Beta        7 (A')     -0.0818
               12      Occ  Beta        9 (A')      0.1200
               13      Occ  Beta       10 (A')      0.2167


           EOMDIP-CCSD left amplitudes will be solved using Davidson.
        Amplitudes will be solved using MOM  algorithm.
     Hard-coded thresholds: 
     LinDepThresh=1.00e-15  NormThresh=1.00e-06  ReorthogonThresh=1.00e-02

      Roots     MaxVec    MaxIter   Precond   Conv      Shift    
      1         120       60        1         1.00e-06  0.00e+00  
 ------------------------------------------------------------------------------
      Iter ConvRoots NVecs ResNorm^2 Current eigenvalues (eV)
 ------------------------------------------------------------------------------
      0    0      1     1.17e-02   -4.6790   
      1    0      2     3.86e-03   -4.6790   
      2    0      3     6.38e-05   -4.6790   
      3    0      4     9.58e-06   -4.6790   
      4    0      5     1.14e-06   -4.6790   
      5    1      6     1.86e-07   -4.6790*  

     Davidson procedure converged

Running a double precision version
           EOM amplitude response will be solved using DIIS.
           Start     Size      MaxIter   EConv     ZConv     
           3         7         100       1.00e-06  1.00e-06  
 ------------------------------------------------------------------------------
            Enorm      Zdiff       Comment
 ------------------------------------------------------------------------------
     1     6.82e-02   4.79e-02     
     2     2.82e-02   1.81e-02     
     3     1.57e-02   8.35e-03     
     4     6.16e-03   9.09e-03     Switched to DIIS steps.
     5     3.49e-03   2.22e-03     
     6     1.93e-03   1.75e-03     
     7     8.65e-04   9.37e-04     
     8     5.78e-04   1.25e-04     
     9     3.05e-04   2.32e-04     
    10     1.70e-04   3.28e-05     
    11     6.97e-05   2.29e-05     
    12     3.19e-05   8.13e-06     
    13     1.45e-05   2.90e-06     
    14     7.80e-06   2.97e-06     
    15     3.64e-06   1.58e-06     
    16     1.46e-06   5.42e-07     
    17     7.98e-07   9.39e-08     
 ------------------------------------------------------------------------------
                                   Amplitude response converged.

           Orbital response amplitudes will be solved using DIIS.
           Start     Size      MaxIter   EConv     LConv     
           3         7         100       1.00e-06  1.00e-06  
 ------------------------------------------------------------------------------
            Enorm      Ldiff       Comment
 ------------------------------------------------------------------------------
     1     4.55e-01   2.24e-01     
     2     5.05e-01   1.39e-01     
     3     6.27e-01   2.58e-01     
     4     1.90e-02   3.10e-01     Switched to DIIS steps.
     5     5.16e-03   1.71e-04     
     6     8.22e-04   1.00e-03     
     7     1.78e-04   3.44e-06     
     8     5.31e-05   3.28e-05     
     9     1.61e-05   1.92e-06     
    10     7.96e-06   3.65e-06     
    11     2.73e-06   7.78e-08     
    12     7.41e-07   8.57e-07     
 ------------------------------------------------------------------------------
                                   Orbital response converged.


 EOMDIP-CCSD  CPU 286.60 s  wall 27.34 s
 Transferring MO TPDM to AO TPDM
 Transferring g2_o1o1o1o1
 Transferring g2_o1o1o1v1
 Transferring g2_o1o1v1v1
 Transferring g2_o1v1o1v1
 Transferring g2_o1v1v1v1
 Transferring g2_v1v1v1v1
 Adding separable TPDM
 Computing TPDM gradient
 --------------------------------------------------------
 2e gradient
  Atom          X               Y               Z
 --------------------------------------------------------
    1          1.364007        3.192434        0.000000  
    2          3.977806       -1.322901       -0.000000  
    3         -9.010057       -5.013281        0.000000  
    4          0.049934        2.403065        2.585705  
    5          0.049934        2.403065       -2.585705  
    6          1.784188       -0.831190        2.589064  
    7          1.784188       -0.831190       -2.589064  
 --------------------------------------------------------
 --------------------------------------------------------
 Final gradient
  Atom          X               Y               Z
 --------------------------------------------------------
    1          1.364007        3.192434        0.000000  
    2          3.977806       -1.322901       -0.000000  
    3         -9.010057       -5.013281        0.000000  
    4          0.049934        2.403065        2.585705  
    5          0.049934        2.403065       -2.585705  
    6          1.784188       -0.831190        2.589064  
    7          1.784188       -0.831190       -2.589064  
 --------------------------------------------------------
 Gradient  CPU 557.94 s  wall 50.91 s
 Total ccman2 time:   CPU 1195.66 s  wall 112.18 s


 --------------------------------------------------------------
             Orbital Energies (a.u.) and Symmetries
 --------------------------------------------------------------

 Alpha MOs, Restricted
 -- Occupied --                  
-19.951 -10.801 -10.693  -0.739  -0.474  -0.320  -0.082  -0.030
  1 A'    2 A'    3 A'    4 A'    5 A'    6 A'    7 A'    8 A'                 
  0.120   0.217  -0.167  -0.057   0.118
  9 A'   10 A'    1 A"    2 A"    3 A"                                         
 -- Virtual --                   
  0.522   0.538   0.730   0.763   0.797   0.941   0.974   1.041
 11 A'   12 A'   13 A'   14 A'   15 A'   16 A'   17 A'   18 A'                 
  1.061   1.095   1.113   1.159   1.296   1.311   1.428   1.509
 19 A'   20 A'   21 A'   22 A'   23 A'   24 A'   25 A'   26 A'                 
  1.609   1.688   1.765   1.778   1.815   1.899   1.949   2.077
 27 A'   28 A'   29 A'   30 A'   31 A'   32 A'   33 A'   34 A'                 
  2.160   2.251   2.342   2.499   2.715   2.870   2.919   2.993
 35 A'   36 A'   37 A'   38 A'   39 A'   40 A'   41 A'   42 A'                 
  3.097   3.193   3.270   3.485   3.515   3.677   3.729   3.775
 43 A'   44 A'   45 A'   46 A'   47 A'   48 A'   49 A'   50 A'                 
  3.857   3.922   3.966   4.008   4.183   4.199   4.259   4.463
 51 A'   52 A'   53 A'   54 A'   55 A'   56 A'   57 A'   58 A'                 
  4.528   4.537   4.636   4.703   4.786   4.797   4.870   4.940
 59 A'   60 A'   61 A'   62 A'   63 A'   64 A'   65 A'   66 A'                 
  5.010   5.081   5.159   5.440   5.564   5.606   5.840   5.894
 67 A'   68 A'   69 A'   70 A'   71 A'   72 A'   73 A'   74 A'                 
  5.979   6.066   6.235   6.270   6.363   6.509   6.893   7.098
 75 A'   76 A'   77 A'   78 A'   79 A'   80 A'   81 A'   82 A'                 
  7.476   7.904   8.058  10.711  12.779  13.780   0.547   0.593
 83 A'   84 A'   85 A'   86 A'   87 A'   88 A'    4 A"    5 A"                 
  0.882   0.952   1.030   1.155   1.239   1.372   1.400   1.533
  6 A"    7 A"    8 A"    9 A"   10 A"   11 A"   12 A"   13 A"                 
  1.619   1.651   1.800   1.920   1.943   2.007   2.088   2.550
 14 A"   15 A"   16 A"   17 A"   18 A"   19 A"   20 A"   21 A"                 
  2.825   3.029   3.160   3.343   3.537   3.570   3.652   3.747
 22 A"   23 A"   24 A"   25 A"   26 A"   27 A"   28 A"   29 A"                 
  3.796   3.798   3.909   3.949   4.053   4.158   4.228   4.353
 30 A"   31 A"   32 A"   33 A"   34 A"   35 A"   36 A"   37 A"                 
  4.372   4.495   4.635   4.748   4.859   4.922   5.135   5.294
 38 A"   39 A"   40 A"   41 A"   42 A"   43 A"   44 A"   45 A"                 
  5.551   5.673   5.742   5.869   6.020   6.234   6.472   6.523
 46 A"   47 A"   48 A"   49 A"   50 A"   51 A"   52 A"   53 A"                 
  6.665   6.781   6.996   7.507   7.965
 54 A"   55 A"   56 A"   57 A"   58 A"                                         

 Beta MOs, Restricted
 -- Occupied --                  
-19.951 -10.801 -10.693  -0.739  -0.474  -0.320  -0.082  -0.030
  1 A'    2 A'    3 A'    4 A'    5 A'    6 A'    7 A'    8 A'                 
  0.120   0.217  -0.167  -0.057   0.118
  9 A'   10 A'    1 A"    2 A"    3 A"                                         
 -- Virtual --                   
  0.522   0.538   0.730   0.763   0.797   0.941   0.974   1.041
 11 A'   12 A'   13 A'   14 A'   15 A'   16 A'   17 A'   18 A'                 
  1.061   1.095   1.113   1.159   1.296   1.311   1.428   1.509
 19 A'   20 A'   21 A'   22 A'   23 A'   24 A'   25 A'   26 A'                 
  1.609   1.688   1.765   1.778   1.815   1.899   1.949   2.077
 27 A'   28 A'   29 A'   30 A'   31 A'   32 A'   33 A'   34 A'                 
  2.160   2.251   2.342   2.499   2.715   2.870   2.919   2.993
 35 A'   36 A'   37 A'   38 A'   39 A'   40 A'   41 A'   42 A'                 
  3.097   3.193   3.270   3.485   3.515   3.677   3.729   3.775
 43 A'   44 A'   45 A'   46 A'   47 A'   48 A'   49 A'   50 A'                 
  3.857   3.922   3.966   4.008   4.183   4.199   4.259   4.463
 51 A'   52 A'   53 A'   54 A'   55 A'   56 A'   57 A'   58 A'                 
  4.528   4.537   4.636   4.703   4.786   4.797   4.870   4.940
 59 A'   60 A'   61 A'   62 A'   63 A'   64 A'   65 A'   66 A'                 
  5.010   5.081   5.159   5.440   5.564   5.606   5.840   5.894
 67 A'   68 A'   69 A'   70 A'   71 A'   72 A'   73 A'   74 A'                 
  5.979   6.066   6.235   6.270   6.363   6.509   6.893   7.098
 75 A'   76 A'   77 A'   78 A'   79 A'   80 A'   81 A'   82 A'                 
  7.476   7.904   8.058  10.711  12.779  13.780   0.547   0.593
 83 A'   84 A'   85 A'   86 A'   87 A'   88 A'    4 A"    5 A"                 
  0.882   0.952   1.030   1.155   1.239   1.372   1.400   1.533
  6 A"    7 A"    8 A"    9 A"   10 A"   11 A"   12 A"   13 A"                 
  1.619   1.651   1.800   1.920   1.943   2.007   2.088   2.550
 14 A"   15 A"   16 A"   17 A"   18 A"   19 A"   20 A"   21 A"                 
  2.825   3.029   3.160   3.343   3.537   3.570   3.652   3.747
 22 A"   23 A"   24 A"   25 A"   26 A"   27 A"   28 A"   29 A"                 
  3.796   3.798   3.909   3.949   4.053   4.158   4.228   4.353
 30 A"   31 A"   32 A"   33 A"   34 A"   35 A"   36 A"   37 A"                 
  4.372   4.495   4.635   4.748   4.859   4.922   5.135   5.294
 38 A"   39 A"   40 A"   41 A"   42 A"   43 A"   44 A"   45 A"                 
  5.551   5.673   5.742   5.869   6.020   6.234   6.472   6.523
 46 A"   47 A"   48 A"   49 A"   50 A"   51 A"   52 A"   53 A"                 
  6.665   6.781   6.996   7.507   7.965
 54 A"   55 A"   56 A"   57 A"   58 A"                                         
 --------------------------------------------------------------

          Ground-State Mulliken Net Atomic Charges

     Atom                 Charge (a.u.)
  ----------------------------------------
      1 C                    -0.001395
      2 C                    -0.460652
      3 O                    -0.243975
      4 H                     0.135081
      5 H                     0.135081
      6 H                     0.217930
      7 H                     0.217930
  ----------------------------------------
  Sum of atomic charges =     0.000000

 -----------------------------------------------------------------
                    Cartesian Multipole Moments
 -----------------------------------------------------------------
    Charge (ESU x 10^10)
                 0.0000
    Dipole Moment (Debye)
         X      -1.9368      Y      -1.1297      Z       0.0000
       Tot       2.2422
    Quadrupole Moments (Debye-Ang)
        XX     -20.9109     XY      -2.3115     YY     -17.9127
        XZ      -0.0000     YZ      -0.0000     ZZ     -16.8638
    Octopole Moments (Debye-Ang^2)
       XXX      -4.3645    XXY       0.6185    XYY       0.1662
       YYY      -0.6854    XXZ       0.0000    XYZ       0.0000
       YYZ       0.0000    XZZ      -2.6661    YZZ      -0.5265
       ZZZ       0.0000
    Hexadecapole Moments (Debye-Ang^3)
      XXXX    -139.6915   XXXY      -3.3693   XXYY     -29.8353
      XYYY       3.4207   YYYY     -43.0112   XXXZ      -0.0000
      XXYZ      -0.0000   XYYZ       0.0000   YYYZ      -0.0000
      XXZZ     -24.5822   XYZZ      -1.2304   YYZZ      -9.4997
      XZZZ       0.0000   YZZZ      -0.0000   ZZZZ     -24.5794
 -----------------------------------------------------------------
 DrvMan completing analytic gradient of the correlated energy
 Correlated dipole moment
            1
    1  -0.7619908
    2  -0.4444534
    3   0.0000000
 Energy read as -153.395584906
 Full Analytical Gradient: (in a.u., or Hartree/Bohr)
             1             2             3             4             5
    1   -0.00018370    0.00003824    0.00011973    0.00002121    0.00002121
    2   -0.00005955   -0.00001747    0.00009032   -0.00001676   -0.00001676
    3   -0.00000000    0.00000000   -0.00000000    0.00000110   -0.00000110
             6             7
    1   -0.00000835   -0.00000835
    2    0.00001011    0.00001011
    3   -0.00000454    0.00000454
 Gradient time:  CPU 1.83 s  wall 1.70 s

     Step 6	:
        Energy is -153.3955849061
                            Maximum         Tolerance       Converged?
         Gradient           9.29174644e-05	3.00000000e-04	true
         Displacement       2.38213994e-03	1.20000000e-03	false
         Energy change      2.60052303e-07	1.00000000e-06	true

	 Optimization Converged in 6 cycles

 *****************************************************
             End of BFGS Algorithm
 *****************************************************
		----------------------------------
		   Verification of Optimization
		----------------------------------

 Eigenvalues of Hessian in Optimization Verification
   0.00714320   0.01098586   0.07387059   0.07921684   0.15296109
   0.16000000   0.16000000   0.16321084   0.23920440   0.28549480
   0.31318882   0.32399406   0.34529913   0.34800800   0.40873797


 Found a minimum
		---------------------------------
		       End of Verification
		---------------------------------

 Final energy is -153.395584906108

	******************************
	**  OPTIMIZATION CONVERGED  **
	******************************
 ----------------------------------------------------------------
             Standard Nuclear Orientation (Angstroms)
    I     Atom           X                Y                Z
 ----------------------------------------------------------------
    1      C       0.1807330005    -0.5247166043     0.0000000000
    2      C      -1.1189148903     0.2420286101     0.0000000000
    3      O       1.3055715766     0.3188122999     0.0000000000
    4      H       0.2064749581    -1.1437140911    -0.8927614084
    5      H       0.2064749581    -1.1437140911     0.8927614084
    6      H      -1.5406873636     0.5796437943    -0.9268155379
    7      H      -1.5406873636     0.5796437943     0.9268155379
 ----------------------------------------------------------------
 Molecular Point Group                 Cs    NOp =  2
 Largest Abelian Subgroup              Cs    NOp =  2
 Nuclear Repulsion Energy =          67.09189426 hartrees
 There are       13 alpha and       13 beta electrons

Z-matrix Print:
$molecule
-2 1
C 
H  1 1.086666
H  1 1.086666 2 110.482507
O  1 1.405988 2 108.832342 3 -119.437414 0
C  1 1.508967 2 108.049977 3 118.008803 0
H  5 1.072783 1 119.902913 2 34.938293 0
H  5 1.072783 1 119.902913 2 -154.494942 0
$end

 -----------------------------------------------------------------------
                  END OF GEOMETRY OPTIMIZER USING LIBOPT3               
 -----------------------------------------------------------------------
 Total job time:  1226.30s(wall), 9197.82s(cpu) 
 Mon Jan 26 11:09:01 2026

        *************************************************************
        *                                                           *
        *  Thank you very much for using Q-Chem.  Have a nice day.  *
        *                                                           *
        *************************************************************


